
     Program PWSCF v.7.2 starts on  8May2024 at 19:27:21 

     This program is part of the open-source Quantum ESPRESSO suite
     for quantum simulation of materials; please cite
         "P. Giannozzi et al., J. Phys.:Condens. Matter 21 395502 (2009);
         "P. Giannozzi et al., J. Phys.:Condens. Matter 29 465901 (2017);
         "P. Giannozzi et al., J. Chem. Phys. 152 154105 (2020);
          URL http://www.quantum-espresso.org", 
     in publications or presentations arising from this work. More details at
     http://www.quantum-espresso.org/quote

     Parallel version (MPI & OpenMP), running on     256 processor cores
     Number of MPI processes:               256
     Threads/MPI process:                     1

     MPI processes distributed on     2 nodes
     219319 MiB available memory on the printing compute node when the environment starts
 
     Reading input from espresso.pwi
Warning: card &CELL ignored
Warning: card / ignored

     Current dimensions of program PWSCF are:
     Max number of different atomic species (ntypx) = 10
     Max number of k-points (npk) =  40000
     Max angular momentum in pseudopotentials (lmaxx) =  4

     IMPORTANT: XC functional enforced from input :
     Exchange-correlation= VDW-DF2-B86R
                           (   1   4  26   0   2   0   0)
     Any further DFT definition will be discarded
     Please, verify this is what you really want

 
     K-points division:     npool     =       2
     R & G space division:  proc/nbgrp/npool/nimage =     128
     Subspace diagonalization in iterative solution of the eigenvalue problem:
     a serial algorithm will be used

 
     Parallelization info
     --------------------
     sticks:   dense  smooth     PW     G-vecs:    dense   smooth      PW
     Min         136      67     17                22688     8011    1075
     Max         137      68     18                22698     8028    1092
     Sum       17409    8703   2299              2904951  1026963  138993
 
     Using Slab Decomposition
 


     bravais-lattice index     =            0
     lattice parameter (alat)  =      22.7777  a.u.
     unit-cell volume          =   16357.7161 (a.u.)^3
     number of atoms/cell      =           64
     number of atomic types    =            2
     number of electrons       =       128.00
     number of Kohn-Sham states=           77
     kinetic-energy cutoff     =      60.0000  Ry
     charge density cutoff     =     480.0000  Ry
     scf convergence threshold =      1.0E-09
     mixing beta               =       0.7000
     number of iterations used =            8  plain     mixing
     Exchange-correlation= VDW-DF2-B86R
                           (   1   4  26   0   2   0   0)

     celldm(1)=  22.777748  celldm(2)=   0.000000  celldm(3)=   0.000000
     celldm(4)=   0.000000  celldm(5)=   0.000000  celldm(6)=   0.000000

     crystal axes: (cart. coord. in units of alat)
               a(1) = (   0.999994  -0.003588   0.000000 )  
               a(2) = (   0.503173   0.876310   0.000000 )  
               a(3) = (   0.000000   0.000000   1.576310 )  

     reciprocal axes: (cart. coord. in units 2 pi/alat)
               b(1) = (  0.997950 -0.573018  0.000000 )  
               b(2) = (  0.004086  1.138803  0.000000 )  
               b(3) = (  0.000000  0.000000  0.634393 )  


     PseudoPot. # 1 for B  read from file:
     /home/k0107/k010725/apps/qe/QE/pseudo/gbrv/pbe/b_pbe_v1.4.uspp.F.UPF
     MD5 check sum: cc6de2960df11db49a60e589f9ebb39b
     Pseudo is Ultrasoft + core correction, Zval =  3.0
     Generated by new atomic code, or converted to UPF format
     Using radial grid of  781 points,  4 beta functions with: 
                l(1) =   0
                l(2) =   0
                l(3) =   1
                l(4) =   1
     Q(r) pseudized with  8 coefficients,  rinner =    1.100   1.100   1.100


     PseudoPot. # 2 for H  read from file:
     /home/k0107/k010725/apps/qe/QE/pseudo/gbrv/pbe/h_pbe_v1.4.uspp.F.UPF
     MD5 check sum: 761ae9a214b05c3daf00ab9f6b793d6f
     Pseudo is Ultrasoft, Zval =  1.0
     Generated by new atomic code, or converted to UPF format
     Using radial grid of  615 points,  2 beta functions with: 
                l(1) =   0
                l(2) =   0
     Q(r) pseudized with  8 coefficients,  rinner =    0.700

     atomic species   valence    mass     pseudopotential
        B              3.00    10.81000     B ( 1.00)
        H              1.00     1.00800     H ( 1.00)

     No symmetry found



   Cartesian axes

     site n.     atom                  positions (alat units)
         1           B   tau(   1) = (   0.0000182   0.0000237   0.7881636  )
         2           B   tau(   2) = (   0.1252576   0.0674628   0.7881471  )
         3           B   tau(   3) = (   0.1258010   0.2191040   0.7881402  )
         4           B   tau(   4) = (   0.2510455   0.2865348   0.7881557  )
         5           B   tau(   5) = (   0.2515942   0.4381718   0.7881489  )
         6           B   tau(   6) = (   0.3768368   0.5056087   0.7881775  )
         7           B   tau(   7) = (   0.3773854   0.6572435   0.7881581  )
         8           B   tau(   8) = (   0.5026253   0.7246950   0.7881560  )
         9           B   tau(   9) = (   0.2500041  -0.0008941   0.7881574  )
        10           B   tau(  10) = (   0.3752510   0.0665377   0.7881540  )
        11           B   tau(  11) = (   0.3757964   0.2181807   0.7881706  )
        12           B   tau(  12) = (   0.5010334   0.2856245   0.7881711  )
        13           B   tau(  13) = (   0.5015845   0.4372614   0.7881484  )
        14           B   tau(  14) = (   0.6268177   0.5047093   0.7881255  )
        15           B   tau(  15) = (   0.6273673   0.6563431   0.7881426  )
        16           B   tau(  16) = (   0.7526155   0.7237741   0.7881485  )
        17           B   tau(  17) = (   0.5000042  -0.0017969   0.7881318  )
        18           B   tau(  18) = (   0.6252469   0.0656424   0.7881372  )
        19           B   tau(  19) = (   0.6257896   0.2172818   0.7881394  )
        20           B   tau(  20) = (   0.7510276   0.2847288   0.7881425  )
        21           B   tau(  21) = (   0.7515735   0.4363680   0.7881265  )
        22           B   tau(  22) = (   0.8768198   0.5037991   0.7881455  )
        23           B   tau(  23) = (   0.8773658   0.6554333   0.7881557  )
        24           B   tau(  24) = (   1.0026141   0.7228749   0.7881433  )
        25           B   tau(  25) = (   0.7500061  -0.0026921   0.7881455  )
        26           B   tau(  26) = (   0.8752488   0.0647578   0.7881539  )
        27           B   tau(  27) = (   0.8757885   0.2163963   0.7881446  )
        28           B   tau(  28) = (   1.0010324   0.2838378   0.7881431  )
        29           B   tau(  29) = (   1.0015802   0.4354660   0.7881445  )
        30           B   tau(  30) = (   1.1268193   0.5029065   0.7881336  )
        31           B   tau(  31) = (   1.1273649   0.6545393   0.7881503  )
        32           B   tau(  32) = (   1.2526156   0.7219727   0.7881570  )
        33           H   tau(  33) = (   0.1255239   0.1432882   0.8683988  )
        34           H   tau(  34) = (   0.1255363   0.1432892   0.7078857  )
        35           H   tau(  35) = (   0.2512823   0.3623565   0.8684122  )
        36           H   tau(  36) = (   0.2513662   0.3623430   0.7078959  )
        37           H   tau(  37) = (   0.3771597   0.5814423   0.8684231  )
        38           H   tau(  38) = (   0.3771301   0.5814100   0.7079068  )
        39           H   tau(  39) = (   0.5028925   0.8005076   0.8684187  )
        40           H   tau(  40) = (   0.5028970   0.8005249   0.7079033  )
        41           H   tau(  41) = (   0.3755270   0.1423603   0.8684221  )
        42           H   tau(  42) = (   0.3755459   0.1423596   0.7079046  )
        43           H   tau(  43) = (   0.5012981   0.3614614   0.8684158  )
        44           H   tau(  44) = (   0.5013117   0.3614355   0.7079008  )
        45           H   tau(  45) = (   0.6270808   0.5805167   0.8683910  )
        46           H   tau(  46) = (   0.6271135   0.5805367   0.7078746  )
        47           H   tau(  47) = (   0.7529036   0.7995840   0.8684134  )
        48           H   tau(  48) = (   0.7529091   0.7995903   0.7078945  )
        49           H   tau(  49) = (   0.6255760   0.1414570   0.8683940  )
        50           H   tau(  50) = (   0.6255449   0.1414619   0.7078812  )
        51           H   tau(  51) = (   0.7512989   0.3605570   0.8683908  )
        52           H   tau(  52) = (   0.7512833   0.3605383   0.7078747  )
        53           H   tau(  53) = (   0.8771217   0.5796097   0.8684116  )
        54           H   tau(  54) = (   0.8770868   0.5796164   0.7078927  )
        55           H   tau(  55) = (   1.0029143   0.7987034   0.8683900  )
        56           H   tau(  56) = (   1.0029096   0.7986871   0.7078755  )
        57           H   tau(  57) = (   0.8755410   0.1405803   0.8684021  )
        58           H   tau(  58) = (   0.8755192   0.1405696   0.7078899  )
        59           H   tau(  59) = (   1.0012759   0.3596480   0.8684027  )
        60           H   tau(  60) = (   1.0012869   0.3596648   0.7078873  )
        61           H   tau(  61) = (   1.1270873   0.5787191   0.8684045  )
        62           H   tau(  62) = (   1.1270397   0.5787295   0.7078922  )
        63           H   tau(  63) = (   1.2528684   0.7977936   0.8684119  )
        64           H   tau(  64) = (   1.2529320   0.7977814   0.7078953  )

     number of k points=    10  Gaussian smearing, width (Ry)=  0.0100
                       cart. coord. in units 2pi/alat
        k(    1) = (   0.0000000   0.0000000   0.0000000), wk =   0.1250000
        k(    2) = (   0.0010215   0.2847007   0.0000000), wk =   0.2500000
        k(    3) = (  -0.0020430  -0.5694015   0.0000000), wk =   0.1250000
        k(    4) = (   0.2494876  -0.1432546   0.0000000), wk =   0.2500000
        k(    5) = (   0.2505091   0.1414462   0.0000000), wk =   0.2500000
        k(    6) = (   0.2474446  -0.7126561   0.0000000), wk =   0.2500000
        k(    7) = (   0.2484661  -0.4279553   0.0000000), wk =   0.2500000
        k(    8) = (  -0.4989752   0.2865092   0.0000000), wk =   0.1250000
        k(    9) = (  -0.4979537   0.5712099   0.0000000), wk =   0.2500000
        k(   10) = (  -0.5010182  -0.2828923   0.0000000), wk =   0.1250000

     Dense  grid:  2904951 G-vectors     FFT dimensions: ( 160, 162, 256)

     Smooth grid:  1026963 G-vectors     FFT dimensions: ( 120, 120, 180)

     Estimated max dynamical RAM per process >      50.46 MB

     Estimated total dynamical RAM >      11.92 GB

     Initial potential from superposition of free atoms

     starting charge     127.9907, renormalised to     128.0000

     negative rho (up, down):  8.459E-04 0.000E+00


     %%%%%%%%%%%%%%%%%%%%%%%%%%%%%%%%%%%%%%%%%%%%%%%%%%%%%%%%%%%%%%%%%%%%%%%%
     %                                                                      %
     % You are using vdW-DF, which was implemented by the Thonhauser group. %
     % Please cite the following two papers that made this development      %
     % possible and the two reviews that describe the various versions:     %
     %                                                                      %
     %   T. Thonhauser et al., PRL 115, 136402 (2015).                      %
     %   T. Thonhauser et al., PRB 76, 125112 (2007).                       %
     %   K. Berland et al., Rep. Prog. Phys. 78, 066501 (2015).             %
     %   D.C. Langreth et al., J. Phys.: Condens. Matter 21, 084203 (2009). %
     %                                                                      %
     % If you are calculating stress with vdW-DF, please also cite:         %
     %                                                                      %
     %   R. Sabatini et al., J. Phys.: Condens. Matter 24, 424209 (2012).   %
     %                                                                      %
     %%%%%%%%%%%%%%%%%%%%%%%%%%%%%%%%%%%%%%%%%%%%%%%%%%%%%%%%%%%%%%%%%%%%%%%%

     %%%%%%%%%%%%%%%%%%%%%%%%%%%%%%%%%%%%%%%%%%%%%%%%%%%%%%%%%%%%%%%%%%%%%%%%
     %                                                                      %
     %  vdW-DF NEWS:                                                        %
     %                                                                      %
     %  * vdW-DF3 is now available. DOI: 10.1021/acs.jctc.0c00471           %
     %    use with input_dft = 'vdW-DF3-opt1' or 'vdW-DF3-opt2'             %
     %                                                                      %
     %  * Unscreened and range-separated hybrid vdW-DF-cx functionals       %
     %    DOI: 10.1063/1.4986522 and 10.1088/1361-648X/ac2ad2               %
     %    use with input_dft = 'vdW-DF-cx0'    and 'vdW-DF-ahcx'            %
     %  * Unscreened and range-separated hybrid vdW-DF2-b86r functionals    %
     %    DOI: 10.1063/1.4986522 and DOI: 10.1103/PhysRevX.12.041003        %
     %    use with input_dft = 'vdW-DF2-br0' and 'vdW-DF2-ahbr'             %
     %                                                                      %
     %%%%%%%%%%%%%%%%%%%%%%%%%%%%%%%%%%%%%%%%%%%%%%%%%%%%%%%%%%%%%%%%%%%%%%%%


     Starting wfcs are  160 randomized atomic wfcs

     total cpu time spent up to now is        5.4 secs

     Self-consistent Calculation

     iteration #  1     ecut=    60.00 Ry     beta= 0.70
     Davidson diagonalization with overlap
     ethr =  1.00E-02,  avg # of iterations =  2.0

     negative rho (up, down):  6.871E-04 0.000E+00

     total cpu time spent up to now is        9.8 secs

     total energy              =    -240.81490823 Ry
     estimated scf accuracy    <       5.11890425 Ry

     iteration #  2     ecut=    60.00 Ry     beta= 0.70
     Davidson diagonalization with overlap
     ethr =  4.00E-03,  avg # of iterations =  2.2

     negative rho (up, down):  1.028E-03 0.000E+00

     total cpu time spent up to now is       13.9 secs

     total energy              =    -241.63084296 Ry
     estimated scf accuracy    <       0.23691164 Ry

     iteration #  3     ecut=    60.00 Ry     beta= 0.70
     RMM-DIIS diagonalization
     ethr =  1.85E-04,  avg # of iterations =  3.0

     negative rho (up, down):  1.236E-03 0.000E+00

     total cpu time spent up to now is       17.6 secs

     total energy              =    -241.66257548 Ry
     estimated scf accuracy    <       0.00914799 Ry

     iteration #  4     ecut=    60.00 Ry     beta= 0.70
     RMM-DIIS diagonalization
     ethr =  7.15E-06,  avg # of iterations =  3.8

     negative rho (up, down):  1.258E-03 0.000E+00

     total cpu time spent up to now is       22.2 secs

     total energy              =    -241.66521374 Ry
     estimated scf accuracy    <       0.00054835 Ry

     iteration #  5     ecut=    60.00 Ry     beta= 0.70
     Davidson diagonalization with overlap
     c_bands:  3 eigenvalues not converged
     c_bands:  1 eigenvalues not converged
     c_bands:  2 eigenvalues not converged
     c_bands:  1 eigenvalues not converged
     ethr =  4.28E-07,  avg # of iterations = 18.4

     negative rho (up, down):  1.263E-03 0.000E+00

     total cpu time spent up to now is       29.2 secs

     total energy              =    -241.66532692 Ry
     estimated scf accuracy    <       0.00031364 Ry

     iteration #  6     ecut=    60.00 Ry     beta= 0.70
     RMM-DIIS diagonalization
     ethr =  2.45E-07,  avg # of iterations =  2.7

     negative rho (up, down):  1.283E-03 0.000E+00

     total cpu time spent up to now is       32.7 secs

     total energy              =    -241.66539457 Ry
     estimated scf accuracy    <       0.00004507 Ry

     iteration #  7     ecut=    60.00 Ry     beta= 0.70
     RMM-DIIS diagonalization
     ethr =  3.52E-08,  avg # of iterations =  2.7

     negative rho (up, down):  1.284E-03 0.000E+00

     total cpu time spent up to now is       36.1 secs

     total energy              =    -241.66540005 Ry
     estimated scf accuracy    <       0.00000739 Ry

     iteration #  8     ecut=    60.00 Ry     beta= 0.70
     RMM-DIIS diagonalization
     ethr =  5.77E-09,  avg # of iterations =  3.0

     negative rho (up, down):  1.284E-03 0.000E+00

     total cpu time spent up to now is       39.8 secs

     total energy              =    -241.66540139 Ry
     estimated scf accuracy    <       0.00000221 Ry

     iteration #  9     ecut=    60.00 Ry     beta= 0.70
     RMM-DIIS diagonalization
     ethr =  1.73E-09,  avg # of iterations =  2.7

     negative rho (up, down):  1.285E-03 0.000E+00

     total cpu time spent up to now is       43.3 secs

     total energy              =    -241.66540156 Ry
     estimated scf accuracy    <       0.00000035 Ry

     iteration # 10     ecut=    60.00 Ry     beta= 0.70
     Davidson diagonalization with overlap
     c_bands:  1 eigenvalues not converged
     ethr =  2.76E-10,  avg # of iterations =  6.5

     negative rho (up, down):  1.284E-03 0.000E+00

     total cpu time spent up to now is       48.0 secs

     total energy              =    -241.66540166 Ry
     estimated scf accuracy    <       0.00000002 Ry

     iteration # 11     ecut=    60.00 Ry     beta= 0.70
     RMM-DIIS diagonalization
     ethr =  1.72E-11,  avg # of iterations =  3.7

     negative rho (up, down):  1.284E-03 0.000E+00

     total cpu time spent up to now is       52.4 secs

     total energy              =    -241.66540166 Ry
     estimated scf accuracy    <          5.6E-09 Ry

     iteration # 12     ecut=    60.00 Ry     beta= 0.70
     RMM-DIIS diagonalization
     ethr =  4.36E-12,  avg # of iterations =  3.1

     negative rho (up, down):  1.284E-03 0.000E+00

     total cpu time spent up to now is       56.1 secs

     End of self-consistent calculation

          k = 0.0000 0.0000 0.0000 (128361 PWs)   bands (ev):

   -15.3695 -14.5214 -14.5210 -14.5209 -14.5208 -14.5111 -14.5111 -13.2342
   -13.2340 -13.1901 -13.1898 -13.1897 -13.1895 -13.1431 -13.1428 -13.0159
    -9.6906  -9.3802  -8.8451  -8.8448  -8.8447  -8.8445  -8.6641  -8.6640
    -8.6088  -8.6086  -8.2070  -8.2070  -8.2067  -8.2064  -7.6934  -7.6932
    -7.6468  -7.6466  -7.3603  -7.3601  -7.3600  -7.3599  -7.2345  -7.2341
    -6.8377  -6.7352  -6.7352  -6.5876  -6.5876  -6.0469  -6.0469  -6.0466
    -6.0465  -5.7056  -5.7054  -5.7053  -5.7053  -4.8158  -4.8154  -3.9237
    -3.8822  -3.6536  -3.6535  -3.6533  -3.6532  -2.9499  -2.9498  -2.6236
    -1.5453  -0.9626  -0.9624  -0.9623  -0.9621  -0.2398  -0.0410  -0.0408
     0.8513   0.8957   0.8957   0.8980   0.8991

          k = 0.0010 0.2847 0.0000 (128363 PWs)   bands (ev):

   -15.3137 -14.8769 -14.6727 -14.6724 -14.2763 -14.2760 -14.0709 -13.5740
   -13.5737 -13.2214 -13.2212 -13.1909 -13.1570 -13.1568 -12.8815 -12.8812
    -9.6242  -9.1172  -9.1026  -9.0154  -9.0151  -8.5698  -8.5696  -8.5675
    -8.5673  -8.4948  -8.4946  -8.1335  -7.7855  -7.7853  -7.7300  -7.7299
    -7.6867  -7.6865  -7.6750  -7.6747  -7.6537  -7.6535  -7.5645  -7.0566
    -7.0216  -7.0214  -6.6251  -6.6249  -6.2255  -6.2252  -6.0677  -6.0677
    -5.6162  -5.5390  -5.5387  -5.1513  -5.1511  -5.0222  -5.0218  -4.1479
    -3.9521  -3.9518  -3.8201  -3.6570  -3.6567  -3.3406  -2.4976  -2.2853
    -1.6855  -1.5110  -1.5109  -0.2685  -0.1914  -0.1914  -0.1731   0.0628
     0.0630   0.3941   0.7069   0.7071   0.7759

          k =-0.0020-0.5694 0.0000 (128298 PWs)   bands (ev):

   -15.1480 -15.1478 -14.7239 -14.7236 -13.9520 -13.9519 -13.9517 -13.9515
   -13.5995 -13.5993 -13.1900 -13.1899 -13.1896 -13.1894 -12.7586 -12.7584
    -9.4265  -9.4263  -9.0731  -9.0728  -8.7083  -8.7081  -8.4497  -8.4495
    -8.2068  -8.2067  -8.2065  -8.2063  -8.1684  -8.1682  -8.1681  -8.1680
    -7.6705  -7.6704  -7.6701  -7.6699  -7.5603  -7.5602  -7.1954  -7.1953
    -7.1952  -7.1950  -6.8877  -6.8875  -6.1919  -6.1919  -5.5519  -5.5518
    -5.5515  -5.5513  -5.3062  -5.3060  -4.7580  -4.7579  -4.5111  -4.5111
    -4.5109  -4.5108  -3.7343  -3.7343  -3.6368  -3.6366  -2.0434  -2.0434
    -1.7155  -1.7153  -1.4260  -1.4258   0.0354   0.0355   0.3470   0.3471
     0.3473   0.3473   0.7029   0.7030   0.7033

          k = 0.2495-0.1433 0.0000 (128397 PWs)   bands (ev):

   -15.3138 -14.8799 -14.6706 -14.6662 -14.2798 -14.2621 -14.0967 -13.5988
   -13.5599 -13.2916 -13.1960 -13.1540 -13.1532 -13.0393 -12.9424 -12.9096
    -9.6335  -9.2711  -9.1958  -8.9535  -8.8623  -8.6431  -8.5643  -8.5249
    -8.4464  -8.3786  -8.3742  -8.2821  -8.1266  -8.0355  -7.9448  -7.7601
    -7.6691  -7.6563  -7.6300  -7.4886  -7.3927  -7.2001  -7.1870  -7.0883
    -7.0280  -7.0068  -6.9375  -6.8923  -6.3994  -6.3629  -6.1299  -5.9329
    -5.8120  -5.7353  -5.2552  -5.2114  -4.9853  -4.9042  -4.7436  -4.2342
    -4.1629  -4.1009  -4.0827  -3.3564  -3.3158  -3.0166  -2.9092  -2.4806
    -1.7686  -1.5437  -0.9307  -0.7038  -0.4791  -0.1645  -0.0676   0.0819
     0.1773   0.3761   0.4514   0.6922   0.7409

          k = 0.2505 0.1414 0.0000 (128399 PWs)   bands (ev):

   -15.3138 -14.8800 -14.6706 -14.6662 -14.2798 -14.2621 -14.0968 -13.5988
   -13.5600 -13.2918 -13.1959 -13.1539 -13.1531 -13.0393 -12.9424 -12.9097
    -9.6335  -9.2711  -9.1958  -8.9534  -8.8623  -8.6431  -8.5644  -8.5248
    -8.4465  -8.3786  -8.3744  -8.2821  -8.1266  -8.0354  -7.9447  -7.7602
    -7.6692  -7.6564  -7.6299  -7.4885  -7.3927  -7.2000  -7.1871  -7.0883
    -7.0278  -7.0066  -6.9377  -6.8923  -6.3992  -6.3628  -6.1299  -5.9331
    -5.8119  -5.7355  -5.2552  -5.2115  -4.9857  -4.9042  -4.7431  -4.2346
    -4.1625  -4.1009  -4.0827  -3.3564  -3.3159  -3.0164  -2.9091  -2.4806
    -1.7685  -1.5437  -0.9307  -0.7037  -0.4791  -0.1645  -0.0674   0.0818
     0.1771   0.3761   0.4513   0.6922   0.7410

          k = 0.2474-0.7127 0.0000 (128372 PWs)   bands (ev):

   -15.2031 -14.9865 -14.9848 -14.3741 -14.3670 -13.9860 -13.8375 -13.8023
   -13.5388 -13.5244 -13.4296 -13.3506 -13.0433 -12.9738 -12.8830 -12.7382
    -9.5019  -9.3191  -9.2421  -8.9484  -8.7901  -8.7447  -8.6021  -8.4528
    -8.3297  -8.1690  -8.1615  -8.1547  -8.0309  -8.0103  -7.9823  -7.8850
    -7.8406  -7.8360  -7.8249  -7.5440  -7.5160  -7.4354  -7.4345  -7.2758
    -7.2298  -7.0069  -6.8894  -6.7508  -6.5030  -6.2733  -5.9588  -5.5526
    -5.4333  -5.3851  -5.2308  -5.0385  -4.9098  -4.8217  -4.5033  -4.4844
    -4.4527  -4.4053  -3.9721  -3.8302  -3.7197  -2.9475  -2.4309  -2.0429
    -2.0133  -1.8638  -1.1792  -0.8531  -0.1227  -0.0342  -0.0272   0.1233
     0.2575   0.3077   0.3269   0.6051   0.8371

          k = 0.2485-0.4280 0.0000 (128370 PWs)   bands (ev):

   -15.2031 -14.9865 -14.9848 -14.3741 -14.3671 -13.9859 -13.8374 -13.8023
   -13.5389 -13.5246 -13.4294 -13.3506 -13.0435 -12.9737 -12.8830 -12.7382
    -9.5019  -9.3191  -9.2422  -8.9483  -8.7901  -8.7447  -8.6022  -8.4529
    -8.3297  -8.1689  -8.1614  -8.1546  -8.0307  -8.0104  -7.9823  -7.8849
    -7.8407  -7.8361  -7.8249  -7.5442  -7.5161  -7.4353  -7.4344  -7.2758
    -7.2298  -7.0068  -6.8894  -6.7508  -6.5030  -6.2736  -5.9589  -5.5523
    -5.4334  -5.3847  -5.2308  -5.0382  -4.9102  -4.8216  -4.5033  -4.4842
    -4.4530  -4.4053  -3.9721  -3.8302  -3.7197  -2.9476  -2.4309  -2.0429
    -2.0134  -1.8637  -1.1792  -0.8531  -0.1228  -0.0341  -0.0272   0.1232
     0.2574   0.3077   0.3269   0.6054   0.8373

          k =-0.4990 0.2865 0.0000 (128364 PWs)   bands (ev):

   -15.1486 -15.1484 -14.7200 -14.7200 -13.9631 -13.9631 -13.9352 -13.9351
   -13.6559 -13.6558 -13.1784 -13.1780 -13.0950 -13.0950 -12.8153 -12.8152
    -9.4653  -9.4651  -8.9719  -8.9715  -8.9602  -8.9601  -8.3648  -8.3648
    -8.3146  -8.3144  -8.1009  -8.1008  -8.0572  -8.0571  -8.0319  -8.0318
    -7.7617  -7.7615  -7.5784  -7.5782  -7.5570  -7.5569  -7.2029  -7.2028
    -7.0303  -7.0303  -6.8103  -6.8103  -6.7492  -6.7492  -5.8332  -5.8330
    -5.3845  -5.3841  -5.0395  -5.0394  -4.6374  -4.6369  -4.5321  -4.5317
    -4.5265  -4.5263  -4.0682  -4.0681  -3.0849  -3.0848  -2.3311  -2.3307
    -2.0898  -2.0896  -0.5688  -0.5687  -0.2325  -0.2323  -0.1868  -0.1866
     0.0646   0.0647   0.6403   0.6404   0.7782

          k =-0.4980 0.5712 0.0000 (128412 PWs)   bands (ev):

   -15.2033 -14.9858 -14.9855 -14.3627 -14.3626 -14.0043 -13.8432 -13.8429
   -13.4819 -13.4817 -13.4234 -13.4233 -12.9622 -12.9619 -12.9318 -12.7637
    -9.5298  -9.2735  -9.2732  -9.2117  -8.5381  -8.5380  -8.4063  -8.3612
    -8.3610  -8.3076  -8.3074  -8.2445  -8.2442  -8.1220  -8.1218  -7.8770
    -7.8248  -7.8246  -7.4929  -7.4928  -7.3573  -7.3571  -7.2785  -7.2783
    -7.2075  -7.1473  -6.8342  -6.6847  -6.6846  -6.4368  -6.1112  -6.1109
    -5.3216  -5.0823  -5.0822  -4.7975  -4.7971  -4.7100  -4.6496  -4.6492
    -4.4206  -4.4204  -4.3206  -3.6038  -3.6038  -2.6198  -2.6197  -2.3951
    -2.2456  -1.3023  -1.3021  -0.6039  -0.4425  -0.4424  -0.0050   0.2208
     0.2209   0.2774   0.2776   0.9816   0.9817

          k =-0.5010-0.2829 0.0000 (128356 PWs)   bands (ev):

   -15.1486 -15.1485 -14.7200 -14.7199 -13.9632 -13.9629 -13.9352 -13.9351
   -13.6561 -13.6559 -13.1781 -13.1780 -13.0950 -13.0949 -12.8154 -12.8152
    -9.4653  -9.4652  -8.9719  -8.9717  -8.9602  -8.9601  -8.3649  -8.3646
    -8.3145  -8.3143  -8.1010  -8.1009  -8.0573  -8.0572  -8.0319  -8.0318
    -7.7619  -7.7617  -7.5783  -7.5781  -7.5569  -7.5568  -7.2030  -7.2028
    -7.0303  -7.0302  -6.8102  -6.8101  -6.7491  -6.7488  -5.8332  -5.8330
    -5.3847  -5.3845  -5.0398  -5.0398  -4.6372  -4.6370  -4.5320  -4.5319
    -4.5260  -4.5259  -4.0683  -4.0682  -3.0849  -3.0848  -2.3309  -2.3307
    -2.0898  -2.0897  -0.5689  -0.5687  -0.2324  -0.2323  -0.1867  -0.1865
     0.0646   0.0647   0.6403   0.6404   0.7780

     the Fermi energy is    -2.1007 ev

!    total energy              =    -241.66540166 Ry
     estimated scf accuracy    <          2.4E-10 Ry
     smearing contrib. (-TS)   =      -0.00460635 Ry
     internal energy E=F+TS    =    -241.66079531 Ry

     The total energy is F=E-TS. E is the sum of the following terms:
     one-electron contribution =   -2034.88971756 Ry
     hartree contribution      =    1038.43681465 Ry
     xc contribution           =    -117.41081964 Ry
     ewald contribution        =     872.20292723 Ry

     convergence has been achieved in  12 iterations

     negative rho (up, down):  1.284E-03 0.000E+00

     Forces acting on atoms (cartesian axes, Ry/au):

     atom    1 type  1   force =    -0.00007298   -0.00002742   -0.00002352
     atom    2 type  1   force =     0.00000603   -0.00001295    0.00001354
     atom    3 type  1   force =    -0.00000887   -0.00004112    0.00001410
     atom    4 type  1   force =     0.00001959   -0.00003350    0.00001700
     atom    5 type  1   force =    -0.00004058   -0.00001030    0.00002847
     atom    6 type  1   force =     0.00001003   -0.00000227   -0.00006461
     atom    7 type  1   force =     0.00000782   -0.00000234   -0.00002073
     atom    8 type  1   force =    -0.00002062   -0.00000564   -0.00003520
     atom    9 type  1   force =    -0.00000045   -0.00000907   -0.00002074
     atom   10 type  1   force =    -0.00001274    0.00004668    0.00002440
     atom   11 type  1   force =    -0.00002770    0.00000471   -0.00001265
     atom   12 type  1   force =     0.00004463   -0.00001517   -0.00004985
     atom   13 type  1   force =    -0.00002208    0.00000599    0.00000095
     atom   14 type  1   force =     0.00005414   -0.00002021    0.00001529
     atom   15 type  1   force =     0.00004554    0.00001864    0.00000435
     atom   16 type  1   force =     0.00000020    0.00000970    0.00002959
     atom   17 type  1   force =    -0.00000916    0.00000509    0.00002126
     atom   18 type  1   force =     0.00003035    0.00000088   -0.00002254
     atom   19 type  1   force =     0.00000658    0.00000925    0.00004763
     atom   20 type  1   force =     0.00002323    0.00000761   -0.00002196
     atom   21 type  1   force =    -0.00000574   -0.00001952    0.00002105
     atom   22 type  1   force =     0.00002369    0.00001314   -0.00000765
     atom   23 type  1   force =     0.00004955    0.00002062   -0.00002510
     atom   24 type  1   force =    -0.00001333    0.00002586    0.00001231
     atom   25 type  1   force =    -0.00002212   -0.00003920    0.00001191
     atom   26 type  1   force =    -0.00001470   -0.00001068   -0.00000075
     atom   27 type  1   force =    -0.00000137   -0.00001105   -0.00001680
     atom   28 type  1   force =    -0.00001266   -0.00000752   -0.00003037
     atom   29 type  1   force =    -0.00005406    0.00002205    0.00001299
     atom   30 type  1   force =     0.00003978   -0.00000667    0.00006895
     atom   31 type  1   force =     0.00003989    0.00001147    0.00000407
     atom   32 type  1   force =     0.00000847    0.00003287   -0.00000792
     atom   33 type  2   force =     0.00001075   -0.00000508    0.00000737
     atom   34 type  2   force =    -0.00000073   -0.00005173    0.00000283
     atom   35 type  2   force =     0.00002654   -0.00000769   -0.00001441
     atom   36 type  2   force =    -0.00001664    0.00003583   -0.00000595
     atom   37 type  2   force =    -0.00002371   -0.00005368    0.00001687
     atom   38 type  2   force =    -0.00000058    0.00004596    0.00002236
     atom   39 type  2   force =     0.00001825    0.00001220   -0.00000382
     atom   40 type  2   force =     0.00000743   -0.00004315   -0.00000212
     atom   41 type  2   force =     0.00000214   -0.00003929   -0.00001915
     atom   42 type  2   force =    -0.00001953    0.00004643    0.00000977
     atom   43 type  2   force =     0.00002580   -0.00004441    0.00001289
     atom   44 type  2   force =    -0.00001711   -0.00000108    0.00000533
     atom   45 type  2   force =     0.00001403    0.00000820    0.00000416
     atom   46 type  2   force =    -0.00002611   -0.00001491    0.00000382
     atom   47 type  2   force =    -0.00001068    0.00003612   -0.00002154
     atom   48 type  2   force =    -0.00000774    0.00003246    0.00001178
     atom   49 type  2   force =    -0.00003807    0.00000506    0.00000799
     atom   50 type  2   force =    -0.00001584    0.00001786   -0.00000517
     atom   51 type  2   force =    -0.00001209   -0.00001342    0.00000182
     atom   52 type  2   force =     0.00001419    0.00001846    0.00001342
     atom   53 type  2   force =    -0.00002544    0.00000947   -0.00001873
     atom   54 type  2   force =     0.00001165    0.00002390    0.00000664
     atom   55 type  2   force =    -0.00000951   -0.00002397    0.00002231
     atom   56 type  2   force =    -0.00001234    0.00000904    0.00001963
     atom   57 type  2   force =    -0.00002410    0.00000856    0.00002486
     atom   58 type  2   force =     0.00000052    0.00001056    0.00000926
     atom   59 type  2   force =     0.00002110    0.00002276    0.00000225
     atom   60 type  2   force =     0.00000495   -0.00005350   -0.00001115
     atom   61 type  2   force =    -0.00000404   -0.00001175   -0.00002258
     atom   62 type  2   force =     0.00003898   -0.00000257   -0.00004654
     atom   63 type  2   force =     0.00002117    0.00002556   -0.00002596
     atom   64 type  2   force =    -0.00002364    0.00003784    0.00000427
     The non-local contrib.  to forces
     atom    1 type  1   force =    -0.00138570   -0.35750658    0.00006216
     atom    2 type  1   force =     0.00130380    0.35745914   -0.00007662
     atom    3 type  1   force =    -0.00128910   -0.35751107    0.00000703
     atom    4 type  1   force =     0.00137001    0.35741990    0.00001491
     atom    5 type  1   force =    -0.00131077   -0.35748153   -0.00001242
     atom    6 type  1   force =     0.00135821    0.35745365    0.00005618
     atom    7 type  1   force =    -0.00113400   -0.35746540   -0.00000503
     atom    8 type  1   force =     0.00124840    0.35745710    0.00001731
     atom    9 type  1   force =    -0.00132517   -0.35749812   -0.00000279
     atom   10 type  1   force =     0.00126052    0.35753903    0.00010838
     atom   11 type  1   force =    -0.00131324   -0.35745961   -0.00005764
     atom   12 type  1   force =     0.00136423    0.35748756   -0.00000188
     atom   13 type  1   force =    -0.00130462   -0.35746934    0.00002631
     atom   14 type  1   force =     0.00135397    0.35745189   -0.00003065
     atom   15 type  1   force =    -0.00123150   -0.35747158   -0.00006125
     atom   16 type  1   force =     0.00132040    0.35747677    0.00002665
     atom   17 type  1   force =    -0.00126916   -0.35745639   -0.00006814
     atom   18 type  1   force =     0.00135157    0.35746396   -0.00001941
     atom   19 type  1   force =    -0.00122674   -0.35746436   -0.00004340
     atom   20 type  1   force =     0.00130088    0.35746063   -0.00003660
     atom   21 type  1   force =    -0.00132583   -0.35748226   -0.00002315
     atom   22 type  1   force =     0.00132197    0.35746004    0.00006416
     atom   23 type  1   force =    -0.00116535   -0.35743228    0.00000701
     atom   24 type  1   force =     0.00127078    0.35748218   -0.00006260
     atom   25 type  1   force =    -0.00129047   -0.35749231    0.00003371
     atom   26 type  1   force =     0.00119361    0.35743878   -0.00003462
     atom   27 type  1   force =    -0.00126388   -0.35746060    0.00000184
     atom   28 type  1   force =     0.00120923    0.35743766   -0.00002912
     atom   29 type  1   force =    -0.00138359   -0.35739758    0.00006408
     atom   30 type  1   force =     0.00128078    0.35743505    0.00005842
     atom   31 type  1   force =    -0.00124270   -0.35742708   -0.00001096
     atom   32 type  1   force =     0.00127502    0.35747918    0.00000556
     atom   33 type  2   force =     0.00001119   -0.00000459   -0.11297802
     atom   34 type  2   force =    -0.00001099    0.00001353    0.11297283
     atom   35 type  2   force =     0.00006286   -0.00000833   -0.11297581
     atom   36 type  2   force =    -0.00007162   -0.00000026    0.11298174
     atom   37 type  2   force =    -0.00007717   -0.00001485   -0.11298720
     atom   38 type  2   force =    -0.00002766    0.00001343    0.11297853
     atom   39 type  2   force =     0.00003016    0.00000187   -0.11297395
     atom   40 type  2   force =     0.00001859   -0.00000079    0.11297912
     atom   41 type  2   force =    -0.00000397    0.00002710   -0.11296796
     atom   42 type  2   force =    -0.00003970   -0.00002068    0.11297143
     atom   43 type  2   force =     0.00002669   -0.00001471   -0.11298203
     atom   44 type  2   force =    -0.00001140    0.00002790    0.11297666
     atom   45 type  2   force =     0.00002057    0.00001368   -0.11298678
     atom   46 type  2   force =    -0.00003995   -0.00001354    0.11298145
     atom   47 type  2   force =    -0.00001489    0.00000360   -0.11296815
     atom   48 type  2   force =    -0.00002154   -0.00002019    0.11297139
     atom   49 type  2   force =    -0.00009691   -0.00000658   -0.11298044
     atom   50 type  2   force =    -0.00004482    0.00000203    0.11297687
     atom   51 type  2   force =    -0.00000121   -0.00001588   -0.11297869
     atom   52 type  2   force =     0.00003037    0.00001369    0.11297174
     atom   53 type  2   force =    -0.00005072    0.00000864   -0.11297908
     atom   54 type  2   force =     0.00001364   -0.00001368    0.11298486
     atom   55 type  2   force =    -0.00002981   -0.00000665   -0.11298767
     atom   56 type  2   force =    -0.00002546    0.00000995    0.11296894
     atom   57 type  2   force =    -0.00004159   -0.00000769   -0.11298647
     atom   58 type  2   force =    -0.00000115    0.00000356    0.11297470
     atom   59 type  2   force =     0.00005203   -0.00000246   -0.11298945
     atom   60 type  2   force =     0.00003018    0.00001431    0.11299551
     atom   61 type  2   force =     0.00000465    0.00002244   -0.11297736
     atom   62 type  2   force =     0.00008861   -0.00002099    0.11300075
     atom   63 type  2   force =     0.00004811   -0.00001943   -0.11296179
     atom   64 type  2   force =    -0.00005802    0.00000257    0.11297112
     The ionic contribution  to forces
     atom    1 type  1   force =     0.00289819    0.67677970    0.00118987
     atom    2 type  1   force =    -0.00208658   -0.67662149   -0.00043522
     atom    3 type  1   force =     0.00254114    0.67674091   -0.00077191
     atom    4 type  1   force =    -0.00221841   -0.67692602    0.00043731
     atom    5 type  1   force =     0.00232130    0.67701085   -0.00040309
     atom    6 type  1   force =    -0.00315766   -0.67671883    0.00230259
     atom    7 type  1   force =     0.00209171    0.67694081   -0.00007582
     atom    8 type  1   force =    -0.00261980   -0.67633917    0.00010848
     atom    9 type  1   force =     0.00233923    0.67666497    0.00063194
     atom   10 type  1   force =    -0.00270824   -0.67654613    0.00042494
     atom   11 type  1   force =     0.00207984    0.67638043    0.00132136
     atom   12 type  1   force =    -0.00226992   -0.67694890    0.00186191
     atom   13 type  1   force =     0.00250022    0.67640961   -0.00052481
     atom   14 type  1   force =    -0.00231298   -0.67679374   -0.00170675
     atom   15 type  1   force =     0.00254727    0.67695317   -0.00027016
     atom   16 type  1   force =    -0.00271026   -0.67650916    0.00002688
     atom   17 type  1   force =     0.00249239    0.67691879   -0.00139091
     atom   18 type  1   force =    -0.00294297   -0.67680018   -0.00071945
     atom   19 type  1   force =     0.00167373    0.67660848   -0.00059029
     atom   20 type  1   force =    -0.00231209   -0.67679879    0.00007312
     atom   21 type  1   force =     0.00242689    0.67669668   -0.00140939
     atom   22 type  1   force =    -0.00267012   -0.67687499    0.00012691
     atom   23 type  1   force =     0.00246360    0.67700378    0.00083583
     atom   24 type  1   force =    -0.00312793   -0.67651450   -0.00020995
     atom   25 type  1   force =     0.00274660    0.67649812   -0.00030630
     atom   26 type  1   force =    -0.00289237   -0.67695380    0.00040622
     atom   27 type  1   force =     0.00216793    0.67673476   -0.00028262
     atom   28 type  1   force =    -0.00222708   -0.67714250   -0.00047694
     atom   29 type  1   force =     0.00278162    0.67692278    0.00017588
     atom   30 type  1   force =    -0.00170234   -0.67707592   -0.00120715
     atom   31 type  1   force =     0.00325638    0.67702813    0.00028917
     atom   32 type  1   force =    -0.00285703   -0.67686928    0.00056694
     atom   33 type  2   force =    -0.00001705   -0.00000417    2.78234618
     atom   34 type  2   force =     0.00015541   -0.00022702   -2.78254083
     atom   35 type  2   force =    -0.00046787    0.00004014    2.78252029
     atom   36 type  2   force =     0.00058480    0.00003085   -2.78247859
     atom   37 type  2   force =     0.00044084    0.00003263    2.78276094
     atom   38 type  2   force =     0.00011919   -0.00001914   -2.78232602
     atom   39 type  2   force =    -0.00013114    0.00001176    2.78261512
     atom   40 type  2   force =    -0.00011854   -0.00003911   -2.78235399
     atom   41 type  2   force =     0.00003924   -0.00025945    2.78257579
     atom   42 type  2   force =     0.00019818    0.00024399   -2.78222305
     atom   43 type  2   force =    -0.00002578   -0.00002831    2.78264952
     atom   44 type  2   force =    -0.00005945   -0.00026486   -2.78236785
     atom   45 type  2   force =    -0.00002944   -0.00011838    2.78236955
     atom   46 type  2   force =     0.00018249    0.00013553   -2.78276267
     atom   47 type  2   force =     0.00007197    0.00006544    2.78248889
     atom   48 type  2   force =     0.00012524    0.00026369   -2.78236763
     atom   49 type  2   force =     0.00058992    0.00001489    2.78233004
     atom   50 type  2   force =     0.00020486    0.00004106   -2.78258278
     atom   51 type  2   force =    -0.00005021    0.00008536    2.78232618
     atom   52 type  2   force =    -0.00019451   -0.00011867   -2.78263281
     atom   53 type  2   force =     0.00026773   -0.00002946    2.78262931
     atom   54 type  2   force =    -0.00007554    0.00019740   -2.78248301
     atom   55 type  2   force =     0.00019074    0.00007465    2.78233677
     atom   56 type  2   force =     0.00011644   -0.00002498   -2.78264497
     atom   57 type  2   force =     0.00017927    0.00008921    2.78249343
     atom   58 type  2   force =     0.00000377   -0.00007870   -2.78247106
     atom   59 type  2   force =    -0.00031650    0.00001471    2.78259901
     atom   60 type  2   force =    -0.00015713   -0.00019305   -2.78269155
     atom   61 type  2   force =     0.00001190   -0.00016180    2.78248896
     atom   62 type  2   force =    -0.00041171    0.00013181   -2.78265952
     atom   63 type  2   force =    -0.00035587    0.00022295    2.78241256
     atom   64 type  2   force =     0.00041651    0.00001246   -2.78235481
     The local contribution  to forces
     atom    1 type  1   force =    -0.00161472   -0.32724046   -0.00127013
     atom    2 type  1   force =     0.00081784    0.32708353    0.00052214
     atom    3 type  1   force =    -0.00128974   -0.32720598    0.00077966
     atom    4 type  1   force =     0.00089949    0.32741003   -0.00043281
     atom    5 type  1   force =    -0.00108168   -0.32747335    0.00044303
     atom    6 type  1   force =     0.00183833    0.32719849   -0.00241655
     atom    7 type  1   force =    -0.00097141   -0.32741299    0.00005854
     atom    8 type  1   force =     0.00138096    0.32681162   -0.00016026
     atom    9 type  1   force =    -0.00104578   -0.32711968   -0.00064831
     atom   10 type  1   force =     0.00146202    0.32699040   -0.00050291
     atom   11 type  1   force =    -0.00082556   -0.32685260   -0.00127767
     atom   12 type  1   force =     0.00098200    0.32738606   -0.00190644
     atom   13 type  1   force =    -0.00124578   -0.32686661    0.00049939
     atom   14 type  1   force =     0.00104485    0.32726060    0.00175043
     atom   15 type  1   force =    -0.00129607   -0.32739812    0.00033492
     atom   16 type  1   force =     0.00141641    0.32697403   -0.00002233
     atom   17 type  1   force =    -0.00125938   -0.32739366    0.00147639
     atom   18 type  1   force =     0.00165093    0.32727047    0.00071606
     atom   19 type  1   force =    -0.00047021   -0.32707229    0.00067980
     atom   20 type  1   force =     0.00106502    0.32728421   -0.00005779
     atom   21 type  1   force =    -0.00113560   -0.32716533    0.00145185
     atom   22 type  1   force =     0.00140024    0.32736342   -0.00019501
     atom   23 type  1   force =    -0.00127741   -0.32748726   -0.00086569
     atom   24 type  1   force =     0.00186643    0.32699295    0.00028349
     atom   25 type  1   force =    -0.00150454   -0.32698287    0.00028609
     atom   26 type  1   force =     0.00170760    0.32743561   -0.00037238
     atom   27 type  1   force =    -0.00093481   -0.32722110    0.00026407
     atom   28 type  1   force =     0.00103322    0.32763457    0.00047424
     atom   29 type  1   force =    -0.00148192   -0.32743125   -0.00022195
     atom   30 type  1   force =     0.00049043    0.32756523    0.00121979
     atom   31 type  1   force =    -0.00199980   -0.32752512   -0.00027288
     atom   32 type  1   force =     0.00161864    0.32735883   -0.00057833
     atom   33 type  2   force =     0.00001646    0.00000335   -2.66936052
     atom   34 type  2   force =    -0.00014531    0.00016144    2.66957053
     atom   35 type  2   force =     0.00043128   -0.00003808   -2.66955942
     atom   36 type  2   force =    -0.00053009    0.00000667    2.66949139
     atom   37 type  2   force =    -0.00038679   -0.00007161   -2.66975748
     atom   38 type  2   force =    -0.00009153    0.00005151    2.66937043
     atom   39 type  2   force =     0.00011963   -0.00000254   -2.66964590
     atom   40 type  2   force =     0.00010777   -0.00000436    2.66937364
     atom   41 type  2   force =    -0.00003309    0.00019276   -2.66962669
     atom   42 type  2   force =    -0.00017796   -0.00017717    2.66926107
     atom   43 type  2   force =     0.00002490   -0.00000004   -2.66965470
     atom   44 type  2   force =     0.00005374    0.00023724    2.66939659
     atom   45 type  2   force =     0.00002330    0.00011391   -2.66938016
     atom   46 type  2   force =    -0.00016824   -0.00013589    2.66978656
     atom   47 type  2   force =    -0.00006825   -0.00003494   -2.66954318
     atom   48 type  2   force =    -0.00011192   -0.00021306    2.66940888
     atom   49 type  2   force =    -0.00053080   -0.00000413   -2.66934175
     atom   50 type  2   force =    -0.00017563   -0.00002610    2.66960083
     atom   51 type  2   force =     0.00003951   -0.00008112   -2.66934592
     atom   52 type  2   force =     0.00017851    0.00012523    2.66967471
     atom   53 type  2   force =    -0.00024305    0.00003019   -2.66967034
     atom   54 type  2   force =     0.00007294   -0.00015993    2.66950613
     atom   55 type  2   force =    -0.00017077   -0.00009239   -2.66932700
     atom   56 type  2   force =    -0.00010365    0.00002365    2.66969584
     atom   57 type  2   force =    -0.00016198   -0.00007383   -2.66948216
     atom   58 type  2   force =    -0.00000230    0.00008483    2.66950565
     atom   59 type  2   force =     0.00028565    0.00001241   -2.66960787
     atom   60 type  2   force =     0.00013197    0.00012715    2.66968541
     atom   61 type  2   force =    -0.00002099    0.00012634   -2.66953475
     atom   62 type  2   force =     0.00036167   -0.00011467    2.66961275
     atom   63 type  2   force =     0.00032931   -0.00017734   -2.66947706
     atom   64 type  2   force =    -0.00038176    0.00002343    2.66938825
     The core correction contribution to forces
     atom    1 type  1   force =     0.00002901    0.00793680   -0.00000455
     atom    2 type  1   force =    -0.00002999   -0.00793742    0.00000410
     atom    3 type  1   force =     0.00002880    0.00793613    0.00000018
     atom    4 type  1   force =    -0.00003224   -0.00793422   -0.00000155
     atom    5 type  1   force =     0.00002948    0.00793591    0.00000181
     atom    6 type  1   force =    -0.00002837   -0.00793539   -0.00000596
     atom    7 type  1   force =     0.00002498    0.00793505    0.00000246
     atom    8 type  1   force =    -0.00002710   -0.00793723    0.00000015
     atom    9 type  1   force =     0.00003024    0.00793921   -0.00000071
     atom   10 type  1   force =    -0.00002686   -0.00793885   -0.00000514
     atom   11 type  1   force =     0.00003122    0.00793725    0.00000216
     atom   12 type  1   force =    -0.00003183   -0.00793764   -0.00000258
     atom   13 type  1   force =     0.00002857    0.00793631    0.00000092
     atom   14 type  1   force =    -0.00003030   -0.00793541    0.00000309
     atom   15 type  1   force =     0.00002722    0.00793588    0.00000169
     atom   16 type  1   force =    -0.00002846   -0.00793612   -0.00000075
     atom   17 type  1   force =     0.00002755    0.00793552    0.00000479
     atom   18 type  1   force =    -0.00002776   -0.00793513    0.00000114
     atom   19 type  1   force =     0.00003027    0.00793655    0.00000239
     atom   20 type  1   force =    -0.00003009   -0.00793598    0.00000018
     atom   21 type  1   force =     0.00002958    0.00793653    0.00000260
     atom   22 type  1   force =    -0.00002901   -0.00793409   -0.00000286
     atom   23 type  1   force =     0.00002522    0.00793488   -0.00000138
     atom   24 type  1   force =    -0.00002537   -0.00793658    0.00000223
     atom   25 type  1   force =     0.00002699    0.00793878   -0.00000070
     atom   26 type  1   force =    -0.00002427   -0.00793401    0.00000090
     atom   27 type  1   force =     0.00002900    0.00793535    0.00000076
     atom   28 type  1   force =    -0.00002763   -0.00793369    0.00000232
     atom   29 type  1   force =     0.00002974    0.00793165   -0.00000417
     atom   30 type  1   force =    -0.00003039   -0.00793316   -0.00000125
     atom   31 type  1   force =     0.00002466    0.00793317   -0.00000039
     atom   32 type  1   force =    -0.00002646   -0.00793528   -0.00000122
     atom   33 type  2   force =     0.00000000    0.00000000    0.00000000
     atom   34 type  2   force =     0.00000000    0.00000000    0.00000000
     atom   35 type  2   force =     0.00000000    0.00000000    0.00000000
     atom   36 type  2   force =     0.00000000    0.00000000    0.00000000
     atom   37 type  2   force =     0.00000000    0.00000000    0.00000000
     atom   38 type  2   force =     0.00000000    0.00000000    0.00000000
     atom   39 type  2   force =     0.00000000    0.00000000    0.00000000
     atom   40 type  2   force =     0.00000000    0.00000000    0.00000000
     atom   41 type  2   force =     0.00000000    0.00000000    0.00000000
     atom   42 type  2   force =     0.00000000    0.00000000    0.00000000
     atom   43 type  2   force =     0.00000000    0.00000000    0.00000000
     atom   44 type  2   force =     0.00000000    0.00000000    0.00000000
     atom   45 type  2   force =     0.00000000    0.00000000    0.00000000
     atom   46 type  2   force =     0.00000000    0.00000000    0.00000000
     atom   47 type  2   force =     0.00000000    0.00000000    0.00000000
     atom   48 type  2   force =     0.00000000    0.00000000    0.00000000
     atom   49 type  2   force =     0.00000000    0.00000000    0.00000000
     atom   50 type  2   force =     0.00000000    0.00000000    0.00000000
     atom   51 type  2   force =     0.00000000    0.00000000    0.00000000
     atom   52 type  2   force =     0.00000000    0.00000000    0.00000000
     atom   53 type  2   force =     0.00000000    0.00000000    0.00000000
     atom   54 type  2   force =     0.00000000    0.00000000    0.00000000
     atom   55 type  2   force =     0.00000000    0.00000000    0.00000000
     atom   56 type  2   force =     0.00000000    0.00000000    0.00000000
     atom   57 type  2   force =     0.00000000    0.00000000    0.00000000
     atom   58 type  2   force =     0.00000000    0.00000000    0.00000000
     atom   59 type  2   force =     0.00000000    0.00000000    0.00000000
     atom   60 type  2   force =     0.00000000    0.00000000    0.00000000
     atom   61 type  2   force =     0.00000000    0.00000000    0.00000000
     atom   62 type  2   force =     0.00000000    0.00000000    0.00000000
     atom   63 type  2   force =     0.00000000    0.00000000    0.00000000
     atom   64 type  2   force =     0.00000000    0.00000000    0.00000000
     The Hubbard contrib.    to forces
     atom    1 type  1   force =     0.00000000    0.00000000    0.00000000
     atom    2 type  1   force =     0.00000000    0.00000000    0.00000000
     atom    3 type  1   force =     0.00000000    0.00000000    0.00000000
     atom    4 type  1   force =     0.00000000    0.00000000    0.00000000
     atom    5 type  1   force =     0.00000000    0.00000000    0.00000000
     atom    6 type  1   force =     0.00000000    0.00000000    0.00000000
     atom    7 type  1   force =     0.00000000    0.00000000    0.00000000
     atom    8 type  1   force =     0.00000000    0.00000000    0.00000000
     atom    9 type  1   force =     0.00000000    0.00000000    0.00000000
     atom   10 type  1   force =     0.00000000    0.00000000    0.00000000
     atom   11 type  1   force =     0.00000000    0.00000000    0.00000000
     atom   12 type  1   force =     0.00000000    0.00000000    0.00000000
     atom   13 type  1   force =     0.00000000    0.00000000    0.00000000
     atom   14 type  1   force =     0.00000000    0.00000000    0.00000000
     atom   15 type  1   force =     0.00000000    0.00000000    0.00000000
     atom   16 type  1   force =     0.00000000    0.00000000    0.00000000
     atom   17 type  1   force =     0.00000000    0.00000000    0.00000000
     atom   18 type  1   force =     0.00000000    0.00000000    0.00000000
     atom   19 type  1   force =     0.00000000    0.00000000    0.00000000
     atom   20 type  1   force =     0.00000000    0.00000000    0.00000000
     atom   21 type  1   force =     0.00000000    0.00000000    0.00000000
     atom   22 type  1   force =     0.00000000    0.00000000    0.00000000
     atom   23 type  1   force =     0.00000000    0.00000000    0.00000000
     atom   24 type  1   force =     0.00000000    0.00000000    0.00000000
     atom   25 type  1   force =     0.00000000    0.00000000    0.00000000
     atom   26 type  1   force =     0.00000000    0.00000000    0.00000000
     atom   27 type  1   force =     0.00000000    0.00000000    0.00000000
     atom   28 type  1   force =     0.00000000    0.00000000    0.00000000
     atom   29 type  1   force =     0.00000000    0.00000000    0.00000000
     atom   30 type  1   force =     0.00000000    0.00000000    0.00000000
     atom   31 type  1   force =     0.00000000    0.00000000    0.00000000
     atom   32 type  1   force =     0.00000000    0.00000000    0.00000000
     atom   33 type  2   force =     0.00000000    0.00000000    0.00000000
     atom   34 type  2   force =     0.00000000    0.00000000    0.00000000
     atom   35 type  2   force =     0.00000000    0.00000000    0.00000000
     atom   36 type  2   force =     0.00000000    0.00000000    0.00000000
     atom   37 type  2   force =     0.00000000    0.00000000    0.00000000
     atom   38 type  2   force =     0.00000000    0.00000000    0.00000000
     atom   39 type  2   force =     0.00000000    0.00000000    0.00000000
     atom   40 type  2   force =     0.00000000    0.00000000    0.00000000
     atom   41 type  2   force =     0.00000000    0.00000000    0.00000000
     atom   42 type  2   force =     0.00000000    0.00000000    0.00000000
     atom   43 type  2   force =     0.00000000    0.00000000    0.00000000
     atom   44 type  2   force =     0.00000000    0.00000000    0.00000000
     atom   45 type  2   force =     0.00000000    0.00000000    0.00000000
     atom   46 type  2   force =     0.00000000    0.00000000    0.00000000
     atom   47 type  2   force =     0.00000000    0.00000000    0.00000000
     atom   48 type  2   force =     0.00000000    0.00000000    0.00000000
     atom   49 type  2   force =     0.00000000    0.00000000    0.00000000
     atom   50 type  2   force =     0.00000000    0.00000000    0.00000000
     atom   51 type  2   force =     0.00000000    0.00000000    0.00000000
     atom   52 type  2   force =     0.00000000    0.00000000    0.00000000
     atom   53 type  2   force =     0.00000000    0.00000000    0.00000000
     atom   54 type  2   force =     0.00000000    0.00000000    0.00000000
     atom   55 type  2   force =     0.00000000    0.00000000    0.00000000
     atom   56 type  2   force =     0.00000000    0.00000000    0.00000000
     atom   57 type  2   force =     0.00000000    0.00000000    0.00000000
     atom   58 type  2   force =     0.00000000    0.00000000    0.00000000
     atom   59 type  2   force =     0.00000000    0.00000000    0.00000000
     atom   60 type  2   force =     0.00000000    0.00000000    0.00000000
     atom   61 type  2   force =     0.00000000    0.00000000    0.00000000
     atom   62 type  2   force =     0.00000000    0.00000000    0.00000000
     atom   63 type  2   force =     0.00000000    0.00000000    0.00000000
     atom   64 type  2   force =     0.00000000    0.00000000    0.00000000
     The SCF correction term to forces
     atom    1 type  1   force =     0.00000024    0.00000315   -0.00000107
     atom    2 type  1   force =     0.00000096    0.00000332   -0.00000107
     atom    3 type  1   force =     0.00000003   -0.00000107   -0.00000107
     atom    4 type  1   force =     0.00000074   -0.00000316   -0.00000106
     atom    5 type  1   force =     0.00000110   -0.00000214   -0.00000106
     atom    6 type  1   force =    -0.00000047   -0.00000015   -0.00000107
     atom    7 type  1   force =    -0.00000347    0.00000022   -0.00000108
     atom    8 type  1   force =    -0.00000308    0.00000208   -0.00000108
     atom    9 type  1   force =     0.00000103    0.00000460   -0.00000108
     atom   10 type  1   force =    -0.00000018    0.00000226   -0.00000107
     atom   11 type  1   force =     0.00000003   -0.00000073   -0.00000106
     atom   12 type  1   force =     0.00000014   -0.00000221   -0.00000106
     atom   13 type  1   force =    -0.00000047   -0.00000395   -0.00000106
     atom   14 type  1   force =    -0.00000141   -0.00000352   -0.00000104
     atom   15 type  1   force =    -0.00000138   -0.00000067   -0.00000105
     atom   16 type  1   force =     0.00000210    0.00000422   -0.00000108
     atom   17 type  1   force =    -0.00000057    0.00000087   -0.00000106
     atom   18 type  1   force =    -0.00000143    0.00000180   -0.00000108
     atom   19 type  1   force =    -0.00000049    0.00000092   -0.00000107
     atom   20 type  1   force =    -0.00000049   -0.00000243   -0.00000105
     atom   21 type  1   force =    -0.00000079   -0.00000510   -0.00000106
     atom   22 type  1   force =     0.00000060   -0.00000121   -0.00000106
     atom   23 type  1   force =     0.00000349    0.00000154   -0.00000107
     atom   24 type  1   force =     0.00000276    0.00000185   -0.00000106
     atom   25 type  1   force =    -0.00000071   -0.00000088   -0.00000109
     atom   26 type  1   force =     0.00000073    0.00000278   -0.00000107
     atom   27 type  1   force =     0.00000039    0.00000058   -0.00000107
     atom   28 type  1   force =    -0.00000040   -0.00000353   -0.00000107
     atom   29 type  1   force =     0.00000009   -0.00000351   -0.00000105
     atom   30 type  1   force =     0.00000130    0.00000217   -0.00000106
     atom   31 type  1   force =     0.00000135    0.00000241   -0.00000106
     atom   32 type  1   force =    -0.00000171   -0.00000053   -0.00000107
     atom   33 type  2   force =     0.00000015    0.00000036   -0.00000047
     atom   34 type  2   force =     0.00000015    0.00000036    0.00000010
     atom   35 type  2   force =     0.00000026   -0.00000138    0.00000033
     atom   36 type  2   force =     0.00000026   -0.00000139   -0.00000069
     atom   37 type  2   force =    -0.00000060    0.00000019    0.00000041
     atom   38 type  2   force =    -0.00000059    0.00000019   -0.00000077
     atom   39 type  2   force =    -0.00000040    0.00000115    0.00000071
     atom   40 type  2   force =    -0.00000040    0.00000115   -0.00000108
     atom   41 type  2   force =    -0.00000005    0.00000034   -0.00000049
     atom   42 type  2   force =    -0.00000005    0.00000033    0.00000013
     atom   43 type  2   force =    -0.00000002   -0.00000131   -0.00000010
     atom   44 type  2   force =    -0.00000001   -0.00000131   -0.00000026
     atom   45 type  2   force =    -0.00000041   -0.00000097    0.00000135
     atom   46 type  2   force =    -0.00000040   -0.00000096   -0.00000171
     atom   47 type  2   force =     0.00000048    0.00000206    0.00000069
     atom   48 type  2   force =     0.00000047    0.00000206   -0.00000106
     atom   49 type  2   force =    -0.00000028    0.00000091   -0.00000007
     atom   50 type  2   force =    -0.00000027    0.00000090   -0.00000030
     atom   51 type  2   force =    -0.00000020   -0.00000175    0.00000006
     atom   52 type  2   force =    -0.00000019   -0.00000175   -0.00000042
     atom   53 type  2   force =     0.00000061    0.00000014    0.00000118
     atom   54 type  2   force =     0.00000061    0.00000014   -0.00000154
     atom   55 type  2   force =     0.00000033    0.00000046    0.00000001
     atom   56 type  2   force =     0.00000032    0.00000046   -0.00000038
     atom   57 type  2   force =     0.00000019    0.00000092   -0.00000014
     atom   58 type  2   force =     0.00000019    0.00000091   -0.00000023
     atom   59 type  2   force =    -0.00000008   -0.00000186    0.00000036
     atom   60 type  2   force =    -0.00000008   -0.00000187   -0.00000072
     atom   61 type  2   force =     0.00000039    0.00000131    0.00000037
     atom   62 type  2   force =     0.00000040    0.00000131   -0.00000073
     atom   63 type  2   force =    -0.00000038   -0.00000059    0.00000012
     atom   64 type  2   force =    -0.00000037   -0.00000058   -0.00000049

     Total force =     0.000334     Total SCF correction =     0.000019

     Writing all to output data dir TMPDIR/pwscf.save/
 
     init_run     :      4.87s CPU      5.13s WALL (       1 calls)
     electrons    :     49.03s CPU     50.98s WALL (       1 calls)
     forces       :      1.12s CPU      1.22s WALL (       1 calls)

     Called by init_run:
     wfcinit      :      1.99s CPU      2.06s WALL (       1 calls)
     potinit      :      0.79s CPU      0.85s WALL (       1 calls)
     hinit0       :      0.26s CPU      0.28s WALL (       1 calls)

     Called by electrons:
     c_bands      :     38.86s CPU     39.71s WALL (      12 calls)
     sum_band     :      5.56s CPU      5.85s WALL (      12 calls)
     v_of_rho     :      4.54s CPU      4.98s WALL (      13 calls)
     newd         :      0.32s CPU      0.49s WALL (      13 calls)
     mix_rho      :      0.14s CPU      0.15s WALL (      12 calls)
     vdW_kernel   :      0.33s CPU      0.34s WALL (       1 calls)

     Called by c_bands:
     init_us_2    :      0.59s CPU      0.61s WALL (     130 calls)
     init_us_2:cp :      0.59s CPU      0.61s WALL (     130 calls)
     crmmdiagg    :     13.07s CPU     13.38s WALL (      40 calls)
     wfcrot       :      9.66s CPU      9.89s WALL (      45 calls)

     Called by *rmmdiagg:
     h_psi        :     28.00s CPU     28.57s WALL (     360 calls)
     s_psi        :      2.60s CPU      2.63s WALL (     360 calls)
     g_psi        :      0.02s CPU      0.02s WALL (     157 calls)

     Called by h_psi:
     h_psi:calbec :      3.13s CPU      3.35s WALL (     360 calls)
     vloc_psi     :     21.75s CPU     22.04s WALL (     360 calls)
     add_vuspsi   :      2.99s CPU      3.04s WALL (     360 calls)

     General routines
     calbec       :      4.21s CPU      4.53s WALL (     440 calls)
     fft          :      3.14s CPU      3.18s WALL (     878 calls)
     ffts         :      0.04s CPU      0.05s WALL (      25 calls)
     fftw         :     23.44s CPU     23.75s WALL (   31428 calls)
     interpolate  :      0.07s CPU      0.08s WALL (      13 calls)
 
     Parallel routines
 
     PWSCF        :     56.60s CPU   1m 0.51s WALL

 
   This run was terminated on:  19:28:22   8May2024            

=------------------------------------------------------------------------------=
   JOB DONE.
=------------------------------------------------------------------------------=
