 ANIMSTEPS   7
 CRYSTAL 
 PRIMVEC 
  5.7275649276  0.0000000000  0.0000000000
  0.0000000000  5.7275649276  0.0000000000
  0.0000000000  0.0000000000 13.7500000000
 PRIMCOORD   1
   13  1
Al    0.0000000000    0.0000000000    4.0000000000    0.0000000000    0.0000000000    0.0000000000
Al    2.8637824638    0.0000000000    4.0000000000    0.0000000000    0.0000000000    0.0000000000
Al    0.0000000000    2.8637824638    4.0000000000    0.0000000000    0.0000000000    0.0000000000
Al    2.8637824638    2.8637824638    4.0000000000    0.0000000000    0.0000000000    0.0000000000
Al    1.4318912319    1.4318912319    6.0250000000    0.0000000000    0.0000000000    0.0000000000
Al    4.2956736957    1.4318912319    6.0250000000    0.0000000000    0.0000000000    0.0000000000
Al    1.4318912319    4.2956736957    6.0250000000    0.0000000000    0.0000000000    0.0000000000
Al    4.2956736957    4.2956736957    6.0250000000    0.0000000000    0.0000000000    0.0000000000
Al   -0.0727584676   -0.0727584676    7.9964398610    0.0040162779    0.0040162779    0.0075931179
Al    2.9365409314   -0.0727584676    7.9964398610   -0.0040162779    0.0040162779    0.0075931179
Al   -0.0727584676    2.9365409314    7.9964398610    0.0040162779   -0.0040162779    0.0075931179
Al    2.9365409314    2.9365409314    7.9964398610   -0.0040162779   -0.0040162779    0.0075931179
Au    1.4318912319    1.4318912319    9.4013916343    0.0000000000    0.0000000000   -0.0024040956
 PRIMCOORD   2
   13  1
Al    0.0000000000    0.0000000000    4.0000000000    0.0000000000    0.0000000000    0.0000000000
Al    2.8637824638    0.0000000000    4.0000000000    0.0000000000    0.0000000000    0.0000000000
Al    0.0000000000    2.8637824638    4.0000000000    0.0000000000    0.0000000000    0.0000000000
Al    2.8637824638    2.8637824638    4.0000000000    0.0000000000    0.0000000000    0.0000000000
Al    1.4318912319    1.4318912319    6.0250000000    0.0000000000    0.0000000000    0.0000000000
Al    4.2956736957    1.4318912319    6.0250000000    0.0000000000    0.0000000000    0.0000000000
Al    1.4318912319    4.2956736957    6.0250000000    0.0000000000    0.0000000000    0.0000000000
Al    4.2956736957    4.2956736957    6.0250000000    0.0000000000    0.0000000000    0.0000000000
Al    0.0908863737   -0.0158979447    8.1593932554    0.0017595276   -0.0003950947    0.0008728796
Al    3.0146372929   -0.0691486350    8.0007588786    0.0042522744   -0.0013307826    0.0028629983
Al    0.0908863737    2.8796804085    8.1593932554    0.0017595276    0.0003950947    0.0008728796
Al    3.0146372929    2.9329310989    8.0007588786    0.0042522744    0.0013307826    0.0028629983
Au    1.9298138119    1.4318912319    9.6594241586   -0.0245464984    0.0000000000   -0.0110887357
 PRIMCOORD   3
   13  1
Al    0.0000000000    0.0000000000    4.0000000000    0.0000000000    0.0000000000    0.0000000000
Al    2.8637824638    0.0000000000    4.0000000000    0.0000000000    0.0000000000    0.0000000000
Al    0.0000000000    2.8637824638    4.0000000000    0.0000000000    0.0000000000    0.0000000000
Al    2.8637824638    2.8637824638    4.0000000000    0.0000000000    0.0000000000    0.0000000000
Al    1.4318912319    1.4318912319    6.0250000000    0.0000000000    0.0000000000    0.0000000000
Al    4.2956736957    1.4318912319    6.0250000000    0.0000000000    0.0000000000    0.0000000000
Al    1.4318912319    4.2956736957    6.0250000000    0.0000000000    0.0000000000    0.0000000000
Al    4.2956736957    4.2956736957    6.0250000000    0.0000000000    0.0000000000    0.0000000000
Al    0.0502972876   -0.0099737647    8.1315042860    0.0018624689   -0.0000064888    0.0001798243
Al    2.9373186126   -0.0708221067    7.9775710586    0.0030273551   -0.0011948308    0.0009208435
Al    0.0502972876    2.8737562285    8.1315042860    0.0018624689    0.0000064888    0.0001798243
Al    2.9373186126    2.9346045706    7.9775710586    0.0030273551    0.0011948308    0.0009208435
Au    2.4205723949    1.4318912319    9.8466613579   -0.0175788993    0.0000000000   -0.0032985568
 PRIMCOORD   4
   13  1
Al    0.0000000000    0.0000000000    4.0000000000    0.0000000000    0.0000000000    0.0000000000
Al    2.8637824638    0.0000000000    4.0000000000    0.0000000000    0.0000000000    0.0000000000
Al    0.0000000000    2.8637824638    4.0000000000    0.0000000000    0.0000000000    0.0000000000
Al    2.8637824638    2.8637824638    4.0000000000    0.0000000000    0.0000000000    0.0000000000
Al    1.4318912319    1.4318912319    6.0250000000    0.0000000000    0.0000000000    0.0000000000
Al    4.2956736957    1.4318912319    6.0250000000    0.0000000000    0.0000000000    0.0000000000
Al    1.4318912319    4.2956736957    6.0250000000    0.0000000000    0.0000000000    0.0000000000
Al    4.2956736957    4.2956736957    6.0250000000    0.0000000000    0.0000000000    0.0000000000
Al    0.0000648670   -0.0145553497    8.1071504930    0.0000430466   -0.0002213997   -0.0008543349
Al    2.8638626650   -0.0656125272    7.9811481431    0.0000699803   -0.0009684204    0.0010531205
Al    0.0000648670    2.8783378135    8.1071504930    0.0000430466    0.0002213997   -0.0008543349
Al    2.8638626650    2.9293949911    7.9811481431    0.0000699803    0.0009684204    0.0010531205
Au    2.8630985036    1.4318912319    9.9278356297   -0.0006474490    0.0000000000   -0.0004886802
 PRIMCOORD   5
   13  1
Al    0.0000000000    0.0000000000    4.0000000000    0.0000000000    0.0000000000    0.0000000000
Al    2.8637824638    0.0000000000    4.0000000000    0.0000000000    0.0000000000    0.0000000000
Al    0.0000000000    2.8637824638    4.0000000000    0.0000000000    0.0000000000    0.0000000000
Al    2.8637824638    2.8637824638    4.0000000000    0.0000000000    0.0000000000    0.0000000000
Al    1.4318912319    1.4318912319    6.0250000000    0.0000000000    0.0000000000    0.0000000000
Al    4.2956736957    1.4318912319    6.0250000000    0.0000000000    0.0000000000    0.0000000000
Al    1.4318912319    4.2956736957    6.0250000000    0.0000000000    0.0000000000    0.0000000000
Al    4.2956736957    4.2956736957    6.0250000000    0.0000000000    0.0000000000    0.0000000000
Al   -0.0501718121   -0.0099921635    8.1312695691   -0.0016852234    0.0000072732    0.0001449975
Al    2.7904072401   -0.0707487138    7.9778250324   -0.0028369607   -0.0011729610    0.0008817421
Al   -0.0501718121    2.8737746274    8.1312695691   -0.0016852234   -0.0000072732    0.0001449975
Al    2.7904072401    2.9345311776    7.9778250324   -0.0028369607    0.0011729610    0.0008817421
Au    3.3064790192    1.4318912319    9.8474263699    0.0154352777    0.0000000000   -0.0029137125
 PRIMCOORD   6
   13  1
Al    0.0000000000    0.0000000000    4.0000000000    0.0000000000    0.0000000000    0.0000000000
Al    2.8637824638    0.0000000000    4.0000000000    0.0000000000    0.0000000000    0.0000000000
Al    0.0000000000    2.8637824638    4.0000000000    0.0000000000    0.0000000000    0.0000000000
Al    2.8637824638    2.8637824638    4.0000000000    0.0000000000    0.0000000000    0.0000000000
Al    1.4318912319    1.4318912319    6.0250000000    0.0000000000    0.0000000000    0.0000000000
Al    4.2956736957    1.4318912319    6.0250000000    0.0000000000    0.0000000000    0.0000000000
Al    1.4318912319    4.2956736957    6.0250000000    0.0000000000    0.0000000000    0.0000000000
Al    4.2956736957    4.2956736957    6.0250000000    0.0000000000    0.0000000000    0.0000000000
Al   -0.0911125557   -0.0157808844    8.1590625262   -0.0016858033   -0.0003696530    0.0008520128
Al    2.7131674983   -0.0687155113    8.0006117683   -0.0041908134   -0.0014111031    0.0027876434
Al   -0.0911125557    2.8795633483    8.1590625262   -0.0016858033    0.0003696530    0.0008520128
Al    2.7131674983    2.9324979752    8.0006117683   -0.0041908134    0.0014111031    0.0027876434
Au    3.7963204118    1.4318912319    9.6606378974    0.0236743370    0.0000000000   -0.0104744006
 PRIMCOORD   7
   13  1
Al    0.0000000000    0.0000000000    4.0000000000    0.0000000000    0.0000000000    0.0000000000
Al    2.8637824638    0.0000000000    4.0000000000    0.0000000000    0.0000000000    0.0000000000
Al    0.0000000000    2.8637824638    4.0000000000    0.0000000000    0.0000000000    0.0000000000
Al    2.8637824638    2.8637824638    4.0000000000    0.0000000000    0.0000000000    0.0000000000
Al    1.4318912319    1.4318912319    6.0250000000    0.0000000000    0.0000000000    0.0000000000
Al    4.2956736957    1.4318912319    6.0250000000    0.0000000000    0.0000000000    0.0000000000
Al    1.4318912319    4.2956736957    6.0250000000    0.0000000000    0.0000000000    0.0000000000
Al    4.2956736957    4.2956736957    6.0250000000    0.0000000000    0.0000000000    0.0000000000
Al    0.0723226214   -0.0731270933    7.9984399474   -0.0039194712    0.0041265288    0.0074321183
Al    2.7914598424   -0.0731270933    7.9984399474    0.0039194712    0.0041265288    0.0074321183
Al    0.0723226214    2.9369095572    7.9984399474   -0.0039194712   -0.0041265288    0.0074321183
Al    2.7914598424    2.9369095572    7.9984399474    0.0039194712   -0.0041265288    0.0074321183
Au    4.2956736957    1.4318912319    9.4043801855    0.0000000000    0.0000000000   -0.0025994521
