 ANIMSTEPS   7
 CRYSTAL 
 PRIMVEC 
  5.7275649276  0.0000000000  0.0000000000
  0.0000000000  5.7275649276  0.0000000000
  0.0000000000  0.0000000000 13.7500000000
 PRIMCOORD   1
   13  1
Al    0.0000000000    0.0000000000    4.0000000000    0.0000000000    0.0000000000    0.0000000000
Al    2.8637824638    0.0000000000    4.0000000000    0.0000000000    0.0000000000    0.0000000000
Al    0.0000000000    2.8637824638    4.0000000000    0.0000000000    0.0000000000    0.0000000000
Al    2.8637824638    2.8637824638    4.0000000000    0.0000000000    0.0000000000    0.0000000000
Al    1.4318912319    1.4318912319    6.0250000000    0.0000000000    0.0000000000    0.0000000000
Al    4.2956736957    1.4318912319    6.0250000000    0.0000000000    0.0000000000    0.0000000000
Al    1.4318912319    4.2956736957    6.0250000000    0.0000000000    0.0000000000    0.0000000000
Al    4.2956736957    4.2956736957    6.0250000000    0.0000000000    0.0000000000    0.0000000000
Al   -0.0727584676   -0.0727584676    7.9964398610    0.0040162779    0.0040162779    0.0075931179
Al    2.9365409314   -0.0727584676    7.9964398610   -0.0040162779    0.0040162779    0.0075931179
Al   -0.0727584676    2.9365409314    7.9964398610    0.0040162779   -0.0040162779    0.0075931179
Al    2.9365409314    2.9365409314    7.9964398610   -0.0040162779   -0.0040162779    0.0075931179
Au    1.4318912319    1.4318912319    9.4013916343    0.0000000000    0.0000000000   -0.0024040956
 PRIMCOORD   2
   13  1
Al    0.0000000000    0.0000000000    4.0000000000    0.0000000000    0.0000000000    0.0000000000
Al    2.8637824638    0.0000000000    4.0000000000    0.0000000000    0.0000000000    0.0000000000
Al    0.0000000000    2.8637824638    4.0000000000    0.0000000000    0.0000000000    0.0000000000
Al    2.8637824638    2.8637824638    4.0000000000    0.0000000000    0.0000000000    0.0000000000
Al    1.4318912319    1.4318912319    6.0250000000    0.0000000000    0.0000000000    0.0000000000
Al    4.2956736957    1.4318912319    6.0250000000    0.0000000000    0.0000000000    0.0000000000
Al    1.4318912319    4.2956736957    6.0250000000    0.0000000000    0.0000000000    0.0000000000
Al    4.2956736957    4.2956736957    6.0250000000    0.0000000000    0.0000000000    0.0000000000
Al    0.0887709682   -0.0145675656    8.1510408711    0.0021649415   -0.0003870628    0.0014084150
Al    3.0153588929   -0.0770118493    8.0104262934    0.0045747144   -0.0001798144    0.0017533954
Al    0.0887571622    2.8783315983    8.1510290562    0.0021659626    0.0003863127    0.0014093907
Al    3.0153446215    2.9407264566    8.0104507862    0.0045754184    0.0001824742    0.0017505627
Au    1.9341806942    1.4318361994    9.6568067668   -0.0263084037    0.0000017175   -0.0101050249
 PRIMCOORD   3
   13  1
Al    0.0000000000    0.0000000000    4.0000000000    0.0000000000    0.0000000000    0.0000000000
Al    2.8637824638    0.0000000000    4.0000000000    0.0000000000    0.0000000000    0.0000000000
Al    0.0000000000    2.8637824638    4.0000000000    0.0000000000    0.0000000000    0.0000000000
Al    2.8637824638    2.8637824638    4.0000000000    0.0000000000    0.0000000000    0.0000000000
Al    1.4318912319    1.4318912319    6.0250000000    0.0000000000    0.0000000000    0.0000000000
Al    4.2956736957    1.4318912319    6.0250000000    0.0000000000    0.0000000000    0.0000000000
Al    1.4318912319    4.2956736957    6.0250000000    0.0000000000    0.0000000000    0.0000000000
Al    4.2956736957    4.2956736957    6.0250000000    0.0000000000    0.0000000000    0.0000000000
Al    0.0493741407   -0.0101824407    8.1234334355    0.0019011028    0.0000958432    0.0006953759
Al    2.9380417468   -0.0767817428    7.9824552875    0.0030252334   -0.0003909797    0.0000297923
Al    0.0493501037    2.8739785219    8.1234096408    0.0019006275   -0.0000955235    0.0006955459
Al    2.9380227479    2.9404882102    7.9825058141    0.0030245689    0.0003912181    0.0000296652
Au    2.4226139270    1.4317918510    9.8416355599   -0.0172012566    0.0000023419   -0.0017986042
 PRIMCOORD   4
   13  1
Al    0.0000000000    0.0000000000    4.0000000000    0.0000000000    0.0000000000    0.0000000000
Al    2.8637824638    0.0000000000    4.0000000000    0.0000000000    0.0000000000    0.0000000000
Al    0.0000000000    2.8637824638    4.0000000000    0.0000000000    0.0000000000    0.0000000000
Al    2.8637824638    2.8637824638    4.0000000000    0.0000000000    0.0000000000    0.0000000000
Al    1.4318912319    1.4318912319    6.0250000000    0.0000000000    0.0000000000    0.0000000000
Al    4.2956736957    1.4318912319    6.0250000000    0.0000000000    0.0000000000    0.0000000000
Al    1.4318912319    4.2956736957    6.0250000000    0.0000000000    0.0000000000    0.0000000000
Al    4.2956736957    4.2956736957    6.0250000000    0.0000000000    0.0000000000    0.0000000000
Al   -0.0001135638   -0.0149657704    8.0994037302   -0.0000065190   -0.0000717795   -0.0001326669
Al    2.8635691127   -0.0724681504    7.9835231770    0.0000229476    0.0000294971    0.0004049756
Al   -0.0001137216    2.8787514954    8.0993917150   -0.0000065978    0.0000716287   -0.0001322488
Al    2.8635687458    2.9361821432    7.9835628993    0.0000230301   -0.0000289847    0.0004046295
Au    2.8632806760    1.4318131095    9.9192754519   -0.0000080822    0.0000030229   -0.0001915410
 PRIMCOORD   5
   13  1
Al    0.0000000000    0.0000000000    4.0000000000    0.0000000000    0.0000000000    0.0000000000
Al    2.8637824638    0.0000000000    4.0000000000    0.0000000000    0.0000000000    0.0000000000
Al    0.0000000000    2.8637824638    4.0000000000    0.0000000000    0.0000000000    0.0000000000
Al    2.8637824638    2.8637824638    4.0000000000    0.0000000000    0.0000000000    0.0000000000
Al    1.4318912319    1.4318912319    6.0250000000    0.0000000000    0.0000000000    0.0000000000
Al    4.2956736957    1.4318912319    6.0250000000    0.0000000000    0.0000000000    0.0000000000
Al    1.4318912319    4.2956736957    6.0250000000    0.0000000000    0.0000000000    0.0000000000
Al    4.2956736957    4.2956736957    6.0250000000    0.0000000000    0.0000000000    0.0000000000
Al   -0.0486833197   -0.0102662102    8.1220714622   -0.0018723681    0.0000840309    0.0007984324
Al    2.7902438344   -0.0756918683    7.9846243615   -0.0028382225   -0.0000386652    0.0006135682
Al   -0.0486606763    2.8740585450    8.1220483383   -0.0018720318   -0.0000837081    0.0007983842
Al    2.7902611133    2.9393977829    7.9846717386   -0.0028381277    0.0000410539    0.0006108879
Au    3.3062923387    1.4318086435    9.8505313453    0.0166468305    0.0000001009   -0.0034769069
 PRIMCOORD   6
   13  1
Al    0.0000000000    0.0000000000    4.0000000000    0.0000000000    0.0000000000    0.0000000000
Al    2.8637824638    0.0000000000    4.0000000000    0.0000000000    0.0000000000    0.0000000000
Al    0.0000000000    2.8637824638    4.0000000000    0.0000000000    0.0000000000    0.0000000000
Al    2.8637824638    2.8637824638    4.0000000000    0.0000000000    0.0000000000    0.0000000000
Al    1.4318912319    1.4318912319    6.0250000000    0.0000000000    0.0000000000    0.0000000000
Al    4.2956736957    1.4318912319    6.0250000000    0.0000000000    0.0000000000    0.0000000000
Al    1.4318912319    4.2956736957    6.0250000000    0.0000000000    0.0000000000    0.0000000000
Al    4.2956736957    4.2956736957    6.0250000000    0.0000000000    0.0000000000    0.0000000000
Al   -0.0884785557   -0.0144424829    8.1507673881   -0.0022531983   -0.0003378010    0.0014748648
Al    2.7124312617   -0.0771228207    8.0110461204   -0.0044805114   -0.0000543689    0.0017987673
Al   -0.0884650446    2.8782101990    8.1507560589   -0.0022547575    0.0003365287    0.0014758567
Al    2.7124472683    2.9408380124    8.0110748440   -0.0044794832    0.0000545064    0.0017987024
Au    3.7915771776    1.4318098866    9.6597016836    0.0262440411    0.0000048662   -0.0104736049
 PRIMCOORD   7
   13  1
Al    0.0000000000    0.0000000000    4.0000000000    0.0000000000    0.0000000000    0.0000000000
Al    2.8637824638    0.0000000000    4.0000000000    0.0000000000    0.0000000000    0.0000000000
Al    0.0000000000    2.8637824638    4.0000000000    0.0000000000    0.0000000000    0.0000000000
Al    2.8637824638    2.8637824638    4.0000000000    0.0000000000    0.0000000000    0.0000000000
Al    1.4318912319    1.4318912319    6.0250000000    0.0000000000    0.0000000000    0.0000000000
Al    4.2956736957    1.4318912319    6.0250000000    0.0000000000    0.0000000000    0.0000000000
Al    1.4318912319    4.2956736957    6.0250000000    0.0000000000    0.0000000000    0.0000000000
Al    4.2956736957    4.2956736957    6.0250000000    0.0000000000    0.0000000000    0.0000000000
Al    0.0723226214   -0.0731270933    7.9984399474   -0.0039163274    0.0041243379    0.0074153130
Al    2.7914598424   -0.0731270933    7.9984399474    0.0039163274    0.0041243379    0.0074153130
Al    0.0723226214    2.9369095572    7.9984399474   -0.0039163274   -0.0041243379    0.0074153130
Al    2.7914598424    2.9369095572    7.9984399474    0.0039163274   -0.0041243379    0.0074153130
Au    4.2956736957    1.4318912319    9.4043801855    0.0000000000    0.0000000000   -0.0025113313
