
     Program PWSCF v.7.2 starts on  7May2024 at 22:14:52 

     This program is part of the open-source Quantum ESPRESSO suite
     for quantum simulation of materials; please cite
         "P. Giannozzi et al., J. Phys.:Condens. Matter 21 395502 (2009);
         "P. Giannozzi et al., J. Phys.:Condens. Matter 29 465901 (2017);
         "P. Giannozzi et al., J. Chem. Phys. 152 154105 (2020);
          URL http://www.quantum-espresso.org", 
     in publications or presentations arising from this work. More details at
     http://www.quantum-espresso.org/quote

     Parallel version (MPI & OpenMP), running on     256 processor cores
     Number of MPI processes:               256
     Threads/MPI process:                     1

     MPI processes distributed on     2 nodes
     224921 MiB available memory on the printing compute node when the environment starts
 
     Reading input from espresso.pwi
Warning: card &CELL ignored
Warning: card / ignored

     Current dimensions of program PWSCF are:
     Max number of different atomic species (ntypx) = 10
     Max number of k-points (npk) =  40000
     Max angular momentum in pseudopotentials (lmaxx) =  4

     IMPORTANT: XC functional enforced from input :
     Exchange-correlation= VDW-DF2-B86R
                           (   1   4  26   0   2   0   0)
     Any further DFT definition will be discarded
     Please, verify this is what you really want

     Found identity + (  0.0000  0.2500  0.0000) symmetry
     This is a supercell, fractional translations are disabled
     Message from routine setup:
     using ibrav=0 with symmetry is DISCOURAGED, use correct ibrav instead
 
     K-points division:     npool     =       2
     R & G space division:  proc/nbgrp/npool/nimage =     128
     Subspace diagonalization in iterative solution of the eigenvalue problem:
     a serial algorithm will be used

 
     Parallelization info
     --------------------
     sticks:   dense  smooth     PW     G-vecs:    dense   smooth      PW
     Min         136      67     17                22688     8011    1075
     Max         137      68     18                22698     8028    1092
     Sum       17409    8703   2299              2904951  1026963  138993
 
     Using Slab Decomposition
 


     bravais-lattice index     =            0
     lattice parameter (alat)  =      22.7777  a.u.
     unit-cell volume          =   16357.7161 (a.u.)^3
     number of atoms/cell      =           64
     number of atomic types    =            2
     number of electrons       =       128.00
     number of Kohn-Sham states=           77
     kinetic-energy cutoff     =      60.0000  Ry
     charge density cutoff     =     480.0000  Ry
     scf convergence threshold =      1.0E-09
     mixing beta               =       0.7000
     number of iterations used =            8  plain     mixing
     Exchange-correlation= VDW-DF2-B86R
                           (   1   4  26   0   2   0   0)

     celldm(1)=  22.777748  celldm(2)=   0.000000  celldm(3)=   0.000000
     celldm(4)=   0.000000  celldm(5)=   0.000000  celldm(6)=   0.000000

     crystal axes: (cart. coord. in units of alat)
               a(1) = (   0.999994  -0.003588   0.000000 )  
               a(2) = (   0.503173   0.876310   0.000000 )  
               a(3) = (   0.000000   0.000000   1.576310 )  

     reciprocal axes: (cart. coord. in units 2 pi/alat)
               b(1) = (  0.997950 -0.573018  0.000000 )  
               b(2) = (  0.004086  1.138803  0.000000 )  
               b(3) = (  0.000000  0.000000  0.634393 )  


     PseudoPot. # 1 for B  read from file:
     /home/k0107/k010725/apps/qe/QE/pseudo/gbrv/pbe/b_pbe_v1.4.uspp.F.UPF
     MD5 check sum: cc6de2960df11db49a60e589f9ebb39b
     Pseudo is Ultrasoft + core correction, Zval =  3.0
     Generated by new atomic code, or converted to UPF format
     Using radial grid of  781 points,  4 beta functions with: 
                l(1) =   0
                l(2) =   0
                l(3) =   1
                l(4) =   1
     Q(r) pseudized with  8 coefficients,  rinner =    1.100   1.100   1.100


     PseudoPot. # 2 for H  read from file:
     /home/k0107/k010725/apps/qe/QE/pseudo/gbrv/pbe/h_pbe_v1.4.uspp.F.UPF
     MD5 check sum: 761ae9a214b05c3daf00ab9f6b793d6f
     Pseudo is Ultrasoft, Zval =  1.0
     Generated by new atomic code, or converted to UPF format
     Using radial grid of  615 points,  2 beta functions with: 
                l(1) =   0
                l(2) =   0
     Q(r) pseudized with  8 coefficients,  rinner =    0.700

     atomic species   valence    mass     pseudopotential
        B              3.00    10.81000     B ( 1.00)
        H              1.00     1.00800     H ( 1.00)

      2 Sym. Ops. (no inversion) found



   Cartesian axes

     site n.     atom                  positions (alat units)
         1           B   tau(   1) = (   0.0000000   0.0000000   0.7881551  )
         2           B   tau(   2) = (   0.1252352   0.0674342   0.7881551  )
         3           B   tau(   3) = (   0.1257931   0.2190773   0.7881551  )
         4           B   tau(   4) = (   0.2510284   0.2865115   0.7881551  )
         5           B   tau(   5) = (   0.2515864   0.4381546   0.7881551  )
         6           B   tau(   6) = (   0.3768216   0.5055888   0.7881551  )
         7           B   tau(   7) = (   0.3773795   0.6572319   0.7881551  )
         8           B   tau(   8) = (   0.5026148   0.7246661   0.7881551  )
         9           B   tau(   9) = (   0.2499983  -0.0008971   0.7881551  )
        10           B   tau(  10) = (   0.3752335   0.0665371   0.7881551  )
        11           B   tau(  11) = (   0.3757914   0.2181803   0.7881551  )
        12           B   tau(  12) = (   0.5010267   0.2856144   0.7881551  )
        13           B   tau(  13) = (   0.5015847   0.4372576   0.7881551  )
        14           B   tau(  14) = (   0.6268199   0.5046917   0.7881551  )
        15           B   tau(  15) = (   0.6273778   0.6563349   0.7881551  )
        16           B   tau(  16) = (   0.7526131   0.7237690   0.7881551  )
        17           B   tau(  17) = (   0.4999966  -0.0017941   0.7881551  )
        18           B   tau(  18) = (   0.6252318   0.0656400   0.7881551  )
        19           B   tau(  19) = (   0.6257897   0.2172832   0.7881551  )
        20           B   tau(  20) = (   0.7510250   0.2847174   0.7881551  )
        21           B   tau(  21) = (   0.7515830   0.4363605   0.7881551  )
        22           B   tau(  22) = (   0.8768182   0.5037947   0.7881551  )
        23           B   tau(  23) = (   0.8773761   0.6554378   0.7881551  )
        24           B   tau(  24) = (   1.0026114   0.7228720   0.7881551  )
        25           B   tau(  25) = (   0.7499949  -0.0026912   0.7881551  )
        26           B   tau(  26) = (   0.8752301   0.0647430   0.7881551  )
        27           B   tau(  27) = (   0.8757880   0.2163862   0.7881551  )
        28           B   tau(  28) = (   1.0010233   0.2838203   0.7881551  )
        29           B   tau(  29) = (   1.0015813   0.4354635   0.7881551  )
        30           B   tau(  30) = (   1.1268165   0.5028976   0.7881551  )
        31           B   tau(  31) = (   1.1273744   0.6545408   0.7881551  )
        32           B   tau(  32) = (   1.2526097   0.7219749   0.7881551  )
        33           H   tau(  33) = (   0.1255159   0.1432645   0.8684139  )
        34           H   tau(  34) = (   0.1255159   0.1432645   0.7078964  )
        35           H   tau(  35) = (   0.2513092   0.3623418   0.8684139  )
        36           H   tau(  36) = (   0.2513092   0.3623418   0.7078964  )
        37           H   tau(  37) = (   0.3771023   0.5814191   0.8684139  )
        38           H   tau(  38) = (   0.3771023   0.5814191   0.7078964  )
        39           H   tau(  39) = (   0.5028956   0.8004966   0.8684139  )
        40           H   tau(  40) = (   0.5028956   0.8004966   0.7078964  )
        41           H   tau(  41) = (   0.3755142   0.1423675   0.8684139  )
        42           H   tau(  42) = (   0.3755142   0.1423675   0.7078964  )
        43           H   tau(  43) = (   0.5013075   0.3614448   0.8684139  )
        44           H   tau(  44) = (   0.5013075   0.3614448   0.7078964  )
        45           H   tau(  45) = (   0.6271006   0.5805221   0.8684139  )
        46           H   tau(  46) = (   0.6271006   0.5805221   0.7078964  )
        47           H   tau(  47) = (   0.7528939   0.7995995   0.8684139  )
        48           H   tau(  48) = (   0.7528939   0.7995995   0.7078964  )
        49           H   tau(  49) = (   0.6255125   0.1414704   0.8684139  )
        50           H   tau(  50) = (   0.6255125   0.1414704   0.7078964  )
        51           H   tau(  51) = (   0.7513058   0.3605477   0.8684139  )
        52           H   tau(  52) = (   0.7513058   0.3605477   0.7078964  )
        53           H   tau(  53) = (   0.8770989   0.5796250   0.8684139  )
        54           H   tau(  54) = (   0.8770989   0.5796250   0.7078964  )
        55           H   tau(  55) = (   1.0028922   0.7987024   0.8684139  )
        56           H   tau(  56) = (   1.0028922   0.7987024   0.7078964  )
        57           H   tau(  57) = (   0.8755108   0.1405734   0.8684139  )
        58           H   tau(  58) = (   0.8755108   0.1405734   0.7078964  )
        59           H   tau(  59) = (   1.0013040   0.3596507   0.8684139  )
        60           H   tau(  60) = (   1.0013040   0.3596507   0.7078964  )
        61           H   tau(  61) = (   1.1270972   0.5787280   0.8684139  )
        62           H   tau(  62) = (   1.1270972   0.5787280   0.7078964  )
        63           H   tau(  63) = (   1.2528904   0.7978054   0.8684139  )
        64           H   tau(  64) = (   1.2528904   0.7978054   0.7078964  )

     number of k points=    10  Gaussian smearing, width (Ry)=  0.0100
                       cart. coord. in units 2pi/alat
        k(    1) = (   0.0000000   0.0000000   0.0000000), wk =   0.1250000
        k(    2) = (   0.0010215   0.2847007   0.0000000), wk =   0.2500000
        k(    3) = (  -0.0020430  -0.5694015   0.0000000), wk =   0.1250000
        k(    4) = (   0.2494876  -0.1432546   0.0000000), wk =   0.2500000
        k(    5) = (   0.2505091   0.1414462   0.0000000), wk =   0.2500000
        k(    6) = (   0.2474446  -0.7126561   0.0000000), wk =   0.2500000
        k(    7) = (   0.2484661  -0.4279553   0.0000000), wk =   0.2500000
        k(    8) = (  -0.4989752   0.2865092   0.0000000), wk =   0.1250000
        k(    9) = (  -0.4979537   0.5712099   0.0000000), wk =   0.2500000
        k(   10) = (  -0.5010182  -0.2828923   0.0000000), wk =   0.1250000

     Dense  grid:  2904951 G-vectors     FFT dimensions: ( 160, 162, 256)

     Smooth grid:  1026963 G-vectors     FFT dimensions: ( 120, 120, 180)

     Estimated max dynamical RAM per process >      50.46 MB

     Estimated total dynamical RAM >      11.92 GB

     Initial potential from superposition of free atoms

     starting charge     127.9907, renormalised to     128.0000

     negative rho (up, down):  8.459E-04 0.000E+00


     %%%%%%%%%%%%%%%%%%%%%%%%%%%%%%%%%%%%%%%%%%%%%%%%%%%%%%%%%%%%%%%%%%%%%%%%
     %                                                                      %
     % You are using vdW-DF, which was implemented by the Thonhauser group. %
     % Please cite the following two papers that made this development      %
     % possible and the two reviews that describe the various versions:     %
     %                                                                      %
     %   T. Thonhauser et al., PRL 115, 136402 (2015).                      %
     %   T. Thonhauser et al., PRB 76, 125112 (2007).                       %
     %   K. Berland et al., Rep. Prog. Phys. 78, 066501 (2015).             %
     %   D.C. Langreth et al., J. Phys.: Condens. Matter 21, 084203 (2009). %
     %                                                                      %
     % If you are calculating stress with vdW-DF, please also cite:         %
     %                                                                      %
     %   R. Sabatini et al., J. Phys.: Condens. Matter 24, 424209 (2012).   %
     %                                                                      %
     %%%%%%%%%%%%%%%%%%%%%%%%%%%%%%%%%%%%%%%%%%%%%%%%%%%%%%%%%%%%%%%%%%%%%%%%

     %%%%%%%%%%%%%%%%%%%%%%%%%%%%%%%%%%%%%%%%%%%%%%%%%%%%%%%%%%%%%%%%%%%%%%%%
     %                                                                      %
     %  vdW-DF NEWS:                                                        %
     %                                                                      %
     %  * vdW-DF3 is now available. DOI: 10.1021/acs.jctc.0c00471           %
     %    use with input_dft = 'vdW-DF3-opt1' or 'vdW-DF3-opt2'             %
     %                                                                      %
     %  * Unscreened and range-separated hybrid vdW-DF-cx functionals       %
     %    DOI: 10.1063/1.4986522 and 10.1088/1361-648X/ac2ad2               %
     %    use with input_dft = 'vdW-DF-cx0'    and 'vdW-DF-ahcx'            %
     %  * Unscreened and range-separated hybrid vdW-DF2-b86r functionals    %
     %    DOI: 10.1063/1.4986522 and DOI: 10.1103/PhysRevX.12.041003        %
     %    use with input_dft = 'vdW-DF2-br0' and 'vdW-DF2-ahbr'             %
     %                                                                      %
     %%%%%%%%%%%%%%%%%%%%%%%%%%%%%%%%%%%%%%%%%%%%%%%%%%%%%%%%%%%%%%%%%%%%%%%%


     Starting wfcs are  160 randomized atomic wfcs

     total cpu time spent up to now is       13.1 secs

     Self-consistent Calculation

     iteration #  1     ecut=    60.00 Ry     beta= 0.70
     Davidson diagonalization with overlap
     ethr =  1.00E-02,  avg # of iterations =  2.0

     negative rho (up, down):  6.870E-04 0.000E+00

     total cpu time spent up to now is       17.6 secs

     total energy              =    -240.81495412 Ry
     estimated scf accuracy    <       5.11876357 Ry

     iteration #  2     ecut=    60.00 Ry     beta= 0.70
     Davidson diagonalization with overlap
     ethr =  4.00E-03,  avg # of iterations =  2.2

     negative rho (up, down):  1.028E-03 0.000E+00

     total cpu time spent up to now is       22.0 secs

     total energy              =    -241.63084503 Ry
     estimated scf accuracy    <       0.23690579 Ry

     iteration #  3     ecut=    60.00 Ry     beta= 0.70
     RMM-DIIS diagonalization
     ethr =  1.85E-04,  avg # of iterations =  3.0

     negative rho (up, down):  1.236E-03 0.000E+00

     total cpu time spent up to now is       25.7 secs

     total energy              =    -241.66258136 Ry
     estimated scf accuracy    <       0.00914500 Ry

     iteration #  4     ecut=    60.00 Ry     beta= 0.70
     RMM-DIIS diagonalization
     ethr =  7.14E-06,  avg # of iterations =  3.8

     negative rho (up, down):  1.258E-03 0.000E+00

     total cpu time spent up to now is       30.2 secs

     total energy              =    -241.66522997 Ry
     estimated scf accuracy    <       0.00051831 Ry

     iteration #  5     ecut=    60.00 Ry     beta= 0.70
     Davidson diagonalization with overlap
     c_bands:  2 eigenvalues not converged
     c_bands:  1 eigenvalues not converged
     c_bands:  2 eigenvalues not converged
     c_bands:  1 eigenvalues not converged
     ethr =  4.05E-07,  avg # of iterations = 18.5

     negative rho (up, down):  1.268E-03 0.000E+00

     total cpu time spent up to now is       36.9 secs

     total energy              =    -241.66536530 Ry
     estimated scf accuracy    <       0.00009329 Ry

     iteration #  6     ecut=    60.00 Ry     beta= 0.70
     RMM-DIIS diagonalization
     ethr =  7.29E-08,  avg # of iterations =  3.0

     negative rho (up, down):  1.283E-03 0.000E+00

     total cpu time spent up to now is       40.7 secs

     total energy              =    -241.66538546 Ry
     estimated scf accuracy    <       0.00011435 Ry

     iteration #  7     ecut=    60.00 Ry     beta= 0.70
     RMM-DIIS diagonalization
     ethr =  7.29E-08,  avg # of iterations =  2.5

     negative rho (up, down):  1.284E-03 0.000E+00

     total cpu time spent up to now is       43.9 secs

     total energy              =    -241.66540003 Ry
     estimated scf accuracy    <       0.00000564 Ry

     iteration #  8     ecut=    60.00 Ry     beta= 0.70
     RMM-DIIS diagonalization
     ethr =  4.41E-09,  avg # of iterations =  3.3

     negative rho (up, down):  1.285E-03 0.000E+00

     total cpu time spent up to now is       47.9 secs

     total energy              =    -241.66540164 Ry
     estimated scf accuracy    <       0.00000144 Ry

     iteration #  9     ecut=    60.00 Ry     beta= 0.70
     RMM-DIIS diagonalization
     ethr =  1.13E-09,  avg # of iterations =  2.9

     negative rho (up, down):  1.285E-03 0.000E+00

     total cpu time spent up to now is       51.5 secs

     total energy              =    -241.66540181 Ry
     estimated scf accuracy    <       0.00000020 Ry

     iteration # 10     ecut=    60.00 Ry     beta= 0.70
     Davidson diagonalization with overlap
     c_bands:  2 eigenvalues not converged
     ethr =  1.54E-10,  avg # of iterations =  4.8

     negative rho (up, down):  1.284E-03 0.000E+00

     total cpu time spent up to now is       56.2 secs

     total energy              =    -241.66540185 Ry
     estimated scf accuracy    <       0.00000002 Ry

     iteration # 11     ecut=    60.00 Ry     beta= 0.70
     RMM-DIIS diagonalization
     ethr =  1.76E-11,  avg # of iterations =  3.2

     negative rho (up, down):  1.284E-03 0.000E+00

     total cpu time spent up to now is       60.0 secs

     total energy              =    -241.66540185 Ry
     estimated scf accuracy    <          3.4E-09 Ry

     iteration # 12     ecut=    60.00 Ry     beta= 0.70
     RMM-DIIS diagonalization
     ethr =  2.68E-12,  avg # of iterations =  3.2

     negative rho (up, down):  1.284E-03 0.000E+00

     total cpu time spent up to now is       63.8 secs

     total energy              =    -241.66540184 Ry
     estimated scf accuracy    <          1.7E-09 Ry

     iteration # 13     ecut=    60.00 Ry     beta= 0.70
     RMM-DIIS diagonalization
     ethr =  1.32E-12,  avg # of iterations =  2.7

     negative rho (up, down):  1.284E-03 0.000E+00

     total cpu time spent up to now is       67.2 secs

     End of self-consistent calculation

          k = 0.0000 0.0000 0.0000 (128361 PWs)   bands (ev):

   -15.3694 -14.5209 -14.5209 -14.5208 -14.5208 -14.5109 -14.5109 -13.2338
   -13.2338 -13.1895 -13.1895 -13.1894 -13.1894 -13.1427 -13.1426 -13.0155
    -9.6905  -9.3804  -8.8446  -8.8446  -8.8446  -8.8446  -8.6639  -8.6639
    -8.6092  -8.6085  -8.2070  -8.2070  -8.2067  -8.2067  -7.6930  -7.6930
    -7.6464  -7.6464  -7.3598  -7.3598  -7.3598  -7.3598  -7.2343  -7.2343
    -6.8373  -6.7354  -6.7354  -6.5875  -6.5875  -6.0471  -6.0471  -6.0462
    -6.0462  -5.7058  -5.7058  -5.7053  -5.7053  -4.8163  -4.8151  -3.9234
    -3.8824  -3.6542  -3.6542  -3.6531  -3.6531  -2.9502  -2.9502  -2.6238
    -1.5459  -0.9627  -0.9627  -0.9623  -0.9623  -0.2398  -0.0416  -0.0406
     0.8513   0.8955   0.8955   0.8979   0.8980

          k = 0.0010 0.2847 0.0000 (128363 PWs)   bands (ev):

   -15.3136 -14.8768 -14.6724 -14.6724 -14.2759 -14.2758 -14.0706 -13.5737
   -13.5736 -13.2210 -13.2210 -13.1905 -13.1567 -13.1565 -12.8810 -12.8809
    -9.6240  -9.1173  -9.1024  -9.0151  -9.0151  -8.5695  -8.5695  -8.5677
    -8.5675  -8.4953  -8.4945  -8.1333  -7.7851  -7.7851  -7.7302  -7.7297
    -7.6863  -7.6863  -7.6754  -7.6746  -7.6534  -7.6533  -7.5644  -7.0563
    -7.0212  -7.0212  -6.6254  -6.6246  -6.2260  -6.2250  -6.0680  -6.0678
    -5.6161  -5.5390  -5.5383  -5.1517  -5.1510  -5.0227  -5.0215  -4.1476
    -3.9527  -3.9516  -3.8204  -3.6576  -3.6567  -3.3409  -2.4980  -2.2855
    -1.6860  -1.5113  -1.5111  -0.2686  -0.1918  -0.1912  -0.1731   0.0622
     0.0632   0.3940   0.7065   0.7071   0.7758

          k =-0.0020-0.5694 0.0000 (128298 PWs)   bands (ev):

   -15.1477 -15.1477 -14.7236 -14.7236 -13.9516 -13.9516 -13.9515 -13.9515
   -13.5991 -13.5991 -13.1895 -13.1895 -13.1894 -13.1894 -12.7581 -12.7581
    -9.4262  -9.4262  -9.0728  -9.0728  -8.7084  -8.7084  -8.4496  -8.4496
    -8.2063  -8.2063  -8.2063  -8.2063  -8.1687  -8.1687  -8.1679  -8.1679
    -7.6700  -7.6699  -7.6699  -7.6699  -7.5600  -7.5600  -7.1955  -7.1955
    -7.1949  -7.1949  -6.8872  -6.8872  -6.1921  -6.1921  -5.5523  -5.5523
    -5.5512  -5.5512  -5.3059  -5.3059  -4.7577  -4.7577  -4.5117  -4.5117
    -4.5107  -4.5107  -3.7347  -3.7347  -3.6370  -3.6370  -2.0439  -2.0438
    -1.7156  -1.7156  -1.4260  -1.4260   0.0354   0.3465   0.3465   0.3474
     0.3474   0.7020   0.7026   0.7030   0.7033

          k = 0.2495-0.1433 0.0000 (128397 PWs)   bands (ev):

   -15.3136 -14.8797 -14.6704 -14.6660 -14.2796 -14.2619 -14.0965 -13.5985
   -13.5596 -13.2913 -13.1957 -13.1537 -13.1528 -13.0389 -12.9420 -12.9093
    -9.6333  -9.2713  -9.1956  -8.9533  -8.8621  -8.6429  -8.5645  -8.5254
    -8.4462  -8.3784  -8.3741  -8.2821  -8.1270  -8.0352  -7.9447  -7.7599
    -7.6689  -7.6561  -7.6296  -7.4882  -7.3924  -7.1997  -7.1868  -7.0882
    -7.0281  -7.0073  -6.9372  -6.8919  -6.3997  -6.3633  -6.1299  -5.9329
    -5.8121  -5.7351  -5.2553  -5.2109  -4.9850  -4.9046  -4.7441  -4.2341
    -4.1635  -4.1012  -4.0824  -3.3568  -3.3157  -3.0174  -2.9094  -2.4808
    -1.7691  -1.5440  -0.9306  -0.7037  -0.4796  -0.1645  -0.0681   0.0818
     0.1775   0.3761   0.4513   0.6921   0.7409

          k = 0.2505 0.1414 0.0000 (128399 PWs)   bands (ev):

   -15.3136 -14.8798 -14.6704 -14.6660 -14.2796 -14.2619 -14.0966 -13.5985
   -13.5597 -13.2915 -13.1956 -13.1535 -13.1527 -13.0389 -12.9421 -12.9093
    -9.6333  -9.2713  -9.1956  -8.9533  -8.8621  -8.6429  -8.5644  -8.5247
    -8.4462  -8.3784  -8.3748  -8.2825  -8.1264  -8.0352  -7.9449  -7.7599
    -7.6689  -7.6569  -7.6297  -7.4883  -7.3924  -7.1997  -7.1867  -7.0883
    -7.0275  -7.0064  -6.9380  -6.8919  -6.3988  -6.3627  -6.1297  -5.9336
    -5.8114  -5.7360  -5.2555  -5.2116  -4.9862  -4.9043  -4.7428  -4.2352
    -4.1623  -4.1012  -4.0825  -3.3567  -3.3166  -3.0165  -2.9096  -2.4808
    -1.7690  -1.5438  -0.9311  -0.7040  -0.4789  -0.1645  -0.0671   0.0815
     0.1765   0.3760   0.4513   0.6921   0.7409

          k = 0.2474-0.7127 0.0000 (128372 PWs)   bands (ev):

   -15.2029 -14.9863 -14.9846 -14.3739 -14.3668 -13.9858 -13.8372 -13.8020
   -13.5385 -13.5242 -13.4293 -13.3503 -13.0430 -12.9734 -12.8826 -12.7378
    -9.5018  -9.3189  -9.2420  -8.9485  -8.7902  -8.7445  -8.6020  -8.4527
    -8.3300  -8.1687  -8.1612  -8.1552  -8.0313  -8.0104  -7.9820  -7.8846
    -7.8404  -7.8358  -7.8246  -7.5438  -7.5158  -7.4357  -7.4342  -7.2755
    -7.2300  -7.0065  -6.8891  -6.7509  -6.5026  -6.2731  -5.9585  -5.5531
    -5.4336  -5.3856  -5.2305  -5.0390  -4.9095  -4.8216  -4.5032  -4.4849
    -4.4524  -4.4053  -3.9724  -3.8309  -3.7199  -2.9478  -2.4315  -2.0431
    -2.0136  -1.8639  -1.1795  -0.8533  -0.1225  -0.0347  -0.0273   0.1235
     0.2574   0.3077   0.3266   0.6046   0.8367

          k = 0.2485-0.4280 0.0000 (128370 PWs)   bands (ev):

   -15.2029 -14.9863 -14.9846 -14.3739 -14.3668 -13.9857 -13.8371 -13.8020
   -13.5386 -13.5243 -13.4292 -13.3503 -13.0431 -12.9733 -12.8826 -12.7378
    -9.5018  -9.3189  -9.2420  -8.9485  -8.7902  -8.7445  -8.6019  -8.4534
    -8.3298  -8.1688  -8.1612  -8.1545  -8.0305  -8.0103  -7.9820  -7.8847
    -7.8411  -7.8358  -7.8246  -7.5446  -7.5158  -7.4349  -7.4342  -7.2755
    -7.2296  -7.0065  -6.8891  -6.7511  -6.5032  -6.2741  -5.9589  -5.5520
    -5.4335  -5.3845  -5.2308  -5.0380  -4.9107  -4.8212  -4.5029  -4.4843
    -4.4536  -4.4058  -3.9724  -3.8301  -3.7200  -2.9482  -2.4312  -2.0431
    -2.0140  -1.8639  -1.1793  -0.8532  -0.1234  -0.0340  -0.0273   0.1227
     0.2574   0.3077   0.3270   0.6056   0.8375

          k =-0.4990 0.2865 0.0000 (128364 PWs)   bands (ev):

   -15.1483 -15.1483 -14.7198 -14.7198 -13.9628 -13.9628 -13.9349 -13.9349
   -13.6556 -13.6556 -13.1779 -13.1779 -13.0946 -13.0946 -12.8149 -12.8149
    -9.4651  -9.4651  -8.9719  -8.9719  -8.9600  -8.9600  -8.3646  -8.3646
    -8.3149  -8.3149  -8.1008  -8.1008  -8.0570  -8.0570  -8.0316  -8.0316
    -7.7614  -7.7614  -7.5779  -7.5779  -7.5568  -7.5568  -7.2025  -7.2025
    -7.0299  -7.0299  -6.8108  -6.8108  -6.7494  -6.7494  -5.8332  -5.8332
    -5.3840  -5.3840  -5.0394  -5.0394  -4.6374  -4.6374  -4.5315  -4.5315
    -4.5269  -4.5269  -4.0686  -4.0686  -3.0849  -3.0849  -2.3315  -2.3315
    -2.0900  -2.0900  -0.5688  -0.5688  -0.2323  -0.2323  -0.1873  -0.1873
     0.0646   0.0647   0.6403   0.7784   0.7784

          k =-0.4980 0.5712 0.0000 (128412 PWs)   bands (ev):

   -15.2032 -14.9855 -14.9854 -14.3624 -14.3624 -14.0041 -13.8428 -13.8427
   -13.4815 -13.4815 -13.4231 -13.4230 -12.9617 -12.9616 -12.9314 -12.7633
    -9.5296  -9.2732  -9.2732  -9.2119  -8.5379  -8.5379  -8.4060  -8.3612
    -8.3612  -8.3080  -8.3073  -8.2441  -8.2441  -8.1224  -8.1216  -7.8773
    -7.8245  -7.8244  -7.4926  -7.4926  -7.3569  -7.3569  -7.2789  -7.2780
    -7.2076  -7.1470  -6.8338  -6.6847  -6.6844  -6.4366  -6.1117  -6.1107
    -5.3219  -5.0823  -5.0818  -4.7980  -4.7968  -4.7102  -4.6502  -4.6490
    -4.4208  -4.4207  -4.3203  -3.6043  -3.6039  -2.6205  -2.6198  -2.3954
    -2.2461  -1.3025  -1.3023  -0.6041  -0.4430  -0.4423  -0.0050   0.2202
     0.2212   0.2775   0.2775   0.9815   0.9818

          k =-0.5010-0.2829 0.0000 (128356 PWs)   bands (ev):

   -15.1483 -15.1483 -14.7198 -14.7198 -13.9628 -13.9628 -13.9349 -13.9349
   -13.6557 -13.6557 -13.1777 -13.1777 -13.0946 -13.0946 -12.8149 -12.8149
    -9.4651  -9.4651  -8.9719  -8.9719  -8.9600  -8.9600  -8.3646  -8.3646
    -8.3142  -8.3142  -8.1014  -8.1014  -8.0569  -8.0569  -8.0316  -8.0316
    -7.7622  -7.7622  -7.5780  -7.5780  -7.5570  -7.5570  -7.2025  -7.2025
    -7.0299  -7.0299  -6.8100  -6.8100  -6.7486  -6.7486  -5.8328  -5.8328
    -5.3851  -5.3851  -5.0404  -5.0404  -4.6374  -4.6374  -4.5319  -4.5319
    -4.5257  -4.5257  -4.0684  -4.0684  -3.0855  -3.0855  -2.3310  -2.3310
    -2.0899  -2.0899  -0.5692  -0.5692  -0.2326  -0.2326  -0.1864  -0.1864
     0.0646   0.0646   0.6403   0.7775   0.7775

     the Fermi energy is    -2.1010 ev

!    total energy              =    -241.66540183 Ry
     estimated scf accuracy    <          1.5E-10 Ry
     smearing contrib. (-TS)   =      -0.00460654 Ry
     internal energy E=F+TS    =    -241.66079530 Ry

     The total energy is F=E-TS. E is the sum of the following terms:
     one-electron contribution =   -2034.88376915 Ry
     hartree contribution      =    1038.43394235 Ry
     xc contribution           =    -117.41053633 Ry
     ewald contribution        =     872.19956784 Ry

     convergence has been achieved in  13 iterations

     negative rho (up, down):  1.284E-03 0.000E+00

     Forces acting on atoms (cartesian axes, Ry/au):

     atom    1 type  1   force =    -0.00008430   -0.00002387    0.00000000
     atom    2 type  1   force =     0.00008430    0.00008379    0.00000000
     atom    3 type  1   force =    -0.00008385   -0.00002248    0.00000000
     atom    4 type  1   force =     0.00008397    0.00008551    0.00000000
     atom    5 type  1   force =    -0.00008421   -0.00002308    0.00000000
     atom    6 type  1   force =     0.00008427    0.00008565    0.00000000
     atom    7 type  1   force =    -0.00008377   -0.00002271    0.00000000
     atom    8 type  1   force =     0.00008404    0.00008559    0.00000000
     atom    9 type  1   force =    -0.00008275   -0.00002400    0.00000000
     atom   10 type  1   force =     0.00008440    0.00008455    0.00000000
     atom   11 type  1   force =    -0.00008232   -0.00002338    0.00000000
     atom   12 type  1   force =     0.00008425    0.00008635    0.00000000
     atom   13 type  1   force =    -0.00008272   -0.00002410    0.00000000
     atom   14 type  1   force =     0.00008449    0.00008622    0.00000000
     atom   15 type  1   force =    -0.00008239   -0.00002365    0.00000000
     atom   16 type  1   force =     0.00008408    0.00008581    0.00000000
     atom   17 type  1   force =    -0.00008268   -0.00002478    0.00000000
     atom   18 type  1   force =     0.00008472    0.00008484    0.00000000
     atom   19 type  1   force =    -0.00008222   -0.00002288    0.00000000
     atom   20 type  1   force =     0.00008408    0.00008560    0.00000000
     atom   21 type  1   force =    -0.00008260   -0.00002353    0.00000000
     atom   22 type  1   force =     0.00008440    0.00008553    0.00000000
     atom   23 type  1   force =    -0.00008234   -0.00002306    0.00000000
     atom   24 type  1   force =     0.00008402    0.00008536    0.00000000
     atom   25 type  1   force =    -0.00008232   -0.00002433    0.00000000
     atom   26 type  1   force =     0.00008599    0.00008413    0.00000000
     atom   27 type  1   force =    -0.00008228   -0.00002336    0.00000000
     atom   28 type  1   force =     0.00008585    0.00008584    0.00000000
     atom   29 type  1   force =    -0.00008248   -0.00002411    0.00000000
     atom   30 type  1   force =     0.00008622    0.00008600    0.00000000
     atom   31 type  1   force =    -0.00008217   -0.00002364    0.00000000
     atom   32 type  1   force =     0.00008601    0.00008544    0.00000000
     atom   33 type  2   force =    -0.00000086   -0.00003104   -0.00001703
     atom   34 type  2   force =    -0.00000086   -0.00003104    0.00001703
     atom   35 type  2   force =    -0.00000093   -0.00003080   -0.00001598
     atom   36 type  2   force =    -0.00000093   -0.00003080    0.00001598
     atom   37 type  2   force =    -0.00000088   -0.00003111   -0.00001715
     atom   38 type  2   force =    -0.00000088   -0.00003111    0.00001715
     atom   39 type  2   force =    -0.00000096   -0.00003047   -0.00001628
     atom   40 type  2   force =    -0.00000096   -0.00003047    0.00001628
     atom   41 type  2   force =    -0.00000090   -0.00003120   -0.00001713
     atom   42 type  2   force =    -0.00000090   -0.00003120    0.00001713
     atom   43 type  2   force =    -0.00000095   -0.00003106   -0.00001611
     atom   44 type  2   force =    -0.00000095   -0.00003106    0.00001611
     atom   45 type  2   force =    -0.00000089   -0.00003110   -0.00001724
     atom   46 type  2   force =    -0.00000089   -0.00003110    0.00001724
     atom   47 type  2   force =    -0.00000095   -0.00003050   -0.00001625
     atom   48 type  2   force =    -0.00000095   -0.00003050    0.00001625
     atom   49 type  2   force =    -0.00000091   -0.00003128   -0.00001713
     atom   50 type  2   force =    -0.00000091   -0.00003128    0.00001713
     atom   51 type  2   force =    -0.00000099   -0.00003089   -0.00001596
     atom   52 type  2   force =    -0.00000099   -0.00003089    0.00001596
     atom   53 type  2   force =    -0.00000091   -0.00003108   -0.00001711
     atom   54 type  2   force =    -0.00000091   -0.00003108    0.00001711
     atom   55 type  2   force =    -0.00000100   -0.00003011   -0.00001626
     atom   56 type  2   force =    -0.00000100   -0.00003011    0.00001626
     atom   57 type  2   force =    -0.00000092   -0.00003132   -0.00001715
     atom   58 type  2   force =    -0.00000092   -0.00003132    0.00001715
     atom   59 type  2   force =    -0.00000096   -0.00003093   -0.00001610
     atom   60 type  2   force =    -0.00000096   -0.00003093    0.00001610
     atom   61 type  2   force =    -0.00000092   -0.00003144   -0.00001726
     atom   62 type  2   force =    -0.00000092   -0.00003144    0.00001726
     atom   63 type  2   force =    -0.00000093   -0.00003027   -0.00001628
     atom   64 type  2   force =    -0.00000093   -0.00003027    0.00001628
     The non-local contrib.  to forces
     atom    1 type  1   force =    -0.00139488   -0.35745818    0.00000000
     atom    2 type  1   force =     0.00140061    0.35756793    0.00000000
     atom    3 type  1   force =    -0.00139411   -0.35745565    0.00000000
     atom    4 type  1   force =     0.00140081    0.35756921    0.00000000
     atom    5 type  1   force =    -0.00139464   -0.35745528    0.00000000
     atom    6 type  1   force =     0.00140024    0.35756863    0.00000000
     atom    7 type  1   force =    -0.00139402   -0.35745514    0.00000000
     atom    8 type  1   force =     0.00140101    0.35757022    0.00000000
     atom    9 type  1   force =    -0.00139310   -0.35745872    0.00000000
     atom   10 type  1   force =     0.00140055    0.35756919    0.00000000
     atom   11 type  1   force =    -0.00139267   -0.35745683    0.00000000
     atom   12 type  1   force =     0.00140147    0.35757021    0.00000000
     atom   13 type  1   force =    -0.00139316   -0.35745655    0.00000000
     atom   14 type  1   force =     0.00140097    0.35757014    0.00000000
     atom   15 type  1   force =    -0.00139272   -0.35745626    0.00000000
     atom   16 type  1   force =     0.00140119    0.35757073    0.00000000
     atom   17 type  1   force =    -0.00139289   -0.35745943    0.00000000
     atom   18 type  1   force =     0.00140123    0.35756955    0.00000000
     atom   19 type  1   force =    -0.00139236   -0.35745671    0.00000000
     atom   20 type  1   force =     0.00140106    0.35756927    0.00000000
     atom   21 type  1   force =    -0.00139279   -0.35745607    0.00000000
     atom   22 type  1   force =     0.00140064    0.35756891    0.00000000
     atom   23 type  1   force =    -0.00139272   -0.35745593    0.00000000
     atom   24 type  1   force =     0.00140080    0.35756981    0.00000000
     atom   25 type  1   force =    -0.00139268   -0.35745829    0.00000000
     atom   26 type  1   force =     0.00140258    0.35756828    0.00000000
     atom   27 type  1   force =    -0.00139264   -0.35745683    0.00000000
     atom   28 type  1   force =     0.00140328    0.35756943    0.00000000
     atom   29 type  1   force =    -0.00139292   -0.35745612    0.00000000
     atom   30 type  1   force =     0.00140309    0.35756880    0.00000000
     atom   31 type  1   force =    -0.00139240   -0.35745629    0.00000000
     atom   32 type  1   force =     0.00140355    0.35757015    0.00000000
     atom   33 type  2   force =    -0.00000266    0.00001197   -0.11296908
     atom   34 type  2   force =    -0.00000266    0.00001197    0.11296908
     atom   35 type  2   force =    -0.00000279    0.00001208   -0.11296797
     atom   36 type  2   force =    -0.00000279    0.00001208    0.11296797
     atom   37 type  2   force =    -0.00000267    0.00001190   -0.11296915
     atom   38 type  2   force =    -0.00000267    0.00001190    0.11296915
     atom   39 type  2   force =    -0.00000279    0.00001194   -0.11296721
     atom   40 type  2   force =    -0.00000279    0.00001194    0.11296721
     atom   41 type  2   force =    -0.00000270    0.00001204   -0.11296892
     atom   42 type  2   force =    -0.00000270    0.00001204    0.11296892
     atom   43 type  2   force =    -0.00000282    0.00001213   -0.11296784
     atom   44 type  2   force =    -0.00000282    0.00001213    0.11296784
     atom   45 type  2   force =    -0.00000269    0.00001202   -0.11296896
     atom   46 type  2   force =    -0.00000269    0.00001202    0.11296896
     atom   47 type  2   force =    -0.00000282    0.00001193   -0.11296722
     atom   48 type  2   force =    -0.00000282    0.00001193    0.11296722
     atom   49 type  2   force =    -0.00000269    0.00001202   -0.11296889
     atom   50 type  2   force =    -0.00000269    0.00001202    0.11296889
     atom   51 type  2   force =    -0.00000282    0.00001206   -0.11296800
     atom   52 type  2   force =    -0.00000282    0.00001206    0.11296800
     atom   53 type  2   force =    -0.00000270    0.00001191   -0.11296913
     atom   54 type  2   force =    -0.00000270    0.00001191    0.11296913
     atom   55 type  2   force =    -0.00000282    0.00001181   -0.11296725
     atom   56 type  2   force =    -0.00000282    0.00001181    0.11296725
     atom   57 type  2   force =    -0.00000273    0.00001200   -0.11296890
     atom   58 type  2   force =    -0.00000273    0.00001200    0.11296890
     atom   59 type  2   force =    -0.00000267    0.00001216   -0.11296783
     atom   60 type  2   force =    -0.00000267    0.00001216    0.11296783
     atom   61 type  2   force =    -0.00000272    0.00001193   -0.11296899
     atom   62 type  2   force =    -0.00000272    0.00001193    0.11296899
     atom   63 type  2   force =    -0.00000267    0.00001200   -0.11296723
     atom   64 type  2   force =    -0.00000267    0.00001200    0.11296723
     The ionic contribution  to forces
     atom    1 type  1   force =     0.00229662    0.67670596    0.00000004
     atom    2 type  1   force =    -0.00234162   -0.67648861    0.00000004
     atom    3 type  1   force =     0.00229687    0.67671771    0.00000004
     atom    4 type  1   force =    -0.00234515   -0.67648393    0.00000004
     atom    5 type  1   force =     0.00229674    0.67672127    0.00000004
     atom    6 type  1   force =    -0.00234327   -0.67648000    0.00000004
     atom    7 type  1   force =     0.00229727    0.67672705    0.00000004
     atom    8 type  1   force =    -0.00234511   -0.67646752    0.00000004
     atom    9 type  1   force =     0.00230206    0.67670067    0.00000004
     atom   10 type  1   force =    -0.00234031   -0.67648664    0.00000004
     atom   11 type  1   force =     0.00230187    0.67670862    0.00000004
     atom   12 type  1   force =    -0.00234020   -0.67648218    0.00000004
     atom   13 type  1   force =     0.00230215    0.67671267    0.00000004
     atom   14 type  1   force =    -0.00233893   -0.67647811    0.00000004
     atom   15 type  1   force =     0.00230136    0.67671807    0.00000004
     atom   16 type  1   force =    -0.00234056   -0.67646849    0.00000004
     atom   17 type  1   force =     0.00230316    0.67669836    0.00000004
     atom   18 type  1   force =    -0.00233668   -0.67648668    0.00000004
     atom   19 type  1   force =     0.00230492    0.67670799    0.00000004
     atom   20 type  1   force =    -0.00234021   -0.67648709    0.00000004
     atom   21 type  1   force =     0.00230465    0.67671402    0.00000004
     atom   22 type  1   force =    -0.00233819   -0.67648251    0.00000004
     atom   23 type  1   force =     0.00230487    0.67671928    0.00000004
     atom   24 type  1   force =    -0.00234010   -0.67647141    0.00000004
     atom   25 type  1   force =     0.00231053    0.67669818    0.00000004
     atom   26 type  1   force =    -0.00233246   -0.67649432    0.00000004
     atom   27 type  1   force =     0.00230680    0.67670554    0.00000004
     atom   28 type  1   force =    -0.00233062   -0.67648931    0.00000004
     atom   29 type  1   force =     0.00230913    0.67670987    0.00000004
     atom   30 type  1   force =    -0.00233062   -0.67648601    0.00000004
     atom   31 type  1   force =     0.00230711    0.67671450    0.00000004
     atom   32 type  1   force =    -0.00233016   -0.67647623    0.00000004
     atom   33 type  2   force =     0.00001667   -0.00011558    2.78243039
     atom   34 type  2   force =     0.00001667   -0.00011558   -2.78243047
     atom   35 type  2   force =     0.00001694   -0.00011430    2.78243084
     atom   36 type  2   force =     0.00001694   -0.00011430   -2.78243093
     atom   37 type  2   force =     0.00001657   -0.00011298    2.78243064
     atom   38 type  2   force =     0.00001657   -0.00011298   -2.78243072
     atom   39 type  2   force =     0.00001694   -0.00011238    2.78242437
     atom   40 type  2   force =     0.00001694   -0.00011239   -2.78242446
     atom   41 type  2   force =     0.00001722   -0.00011684    2.78242973
     atom   42 type  2   force =     0.00001722   -0.00011684   -2.78242981
     atom   43 type  2   force =     0.00001786   -0.00011554    2.78243020
     atom   44 type  2   force =     0.00001786   -0.00011554   -2.78243028
     atom   45 type  2   force =     0.00001726   -0.00011423    2.78242999
     atom   46 type  2   force =     0.00001726   -0.00011423   -2.78243008
     atom   47 type  2   force =     0.00001783   -0.00011260    2.78242500
     atom   48 type  2   force =     0.00001783   -0.00011260   -2.78242508
     atom   49 type  2   force =     0.00001804   -0.00011687    2.78242973
     atom   50 type  2   force =     0.00001804   -0.00011687   -2.78242981
     atom   51 type  2   force =     0.00001830   -0.00011523    2.78243148
     atom   52 type  2   force =     0.00001830   -0.00011523   -2.78243156
     atom   53 type  2   force =     0.00001790   -0.00011391    2.78243129
     atom   54 type  2   force =     0.00001790   -0.00011391   -2.78243137
     atom   55 type  2   force =     0.00001820   -0.00011186    2.78242513
     atom   56 type  2   force =     0.00001820   -0.00011186   -2.78242521
     atom   57 type  2   force =     0.00001855   -0.00011779    2.78242913
     atom   58 type  2   force =     0.00001855   -0.00011779   -2.78242921
     atom   59 type  2   force =     0.00001840   -0.00011640    2.78242961
     atom   60 type  2   force =     0.00001840   -0.00011640   -2.78242969
     atom   61 type  2   force =     0.00001879   -0.00011529    2.78242941
     atom   62 type  2   force =     0.00001879   -0.00011529   -2.78242949
     atom   63 type  2   force =     0.00001859   -0.00011356    2.78242449
     atom   64 type  2   force =     0.00001859   -0.00011356   -2.78242457
     The local contribution  to forces
     atom    1 type  1   force =    -0.00101851   -0.32720617    0.00000654
     atom    2 type  1   force =     0.00105684    0.32694156    0.00000654
     atom    3 type  1   force =    -0.00101833   -0.32722252    0.00000654
     atom    4 type  1   force =     0.00106069    0.32694136    0.00000654
     atom    5 type  1   force =    -0.00101911   -0.32722369    0.00000654
     atom    6 type  1   force =     0.00105858    0.32693781    0.00000654
     atom    7 type  1   force =    -0.00101798   -0.32722819    0.00000654
     atom    8 type  1   force =     0.00106178    0.32692721    0.00000654
     atom    9 type  1   force =    -0.00102438   -0.32720112    0.00000654
     atom   10 type  1   force =     0.00105626    0.32694003    0.00000654
     atom   11 type  1   force =    -0.00102381   -0.32721314    0.00000654
     atom   12 type  1   force =     0.00105520    0.32693814    0.00000654
     atom   13 type  1   force =    -0.00102441   -0.32721466    0.00000654
     atom   14 type  1   force =     0.00105439    0.32693704    0.00000654
     atom   15 type  1   force =    -0.00102278   -0.32721795    0.00000654
     atom   16 type  1   force =     0.00105499    0.32692702    0.00000654
     atom   17 type  1   force =    -0.00102404   -0.32719734    0.00000654
     atom   18 type  1   force =     0.00105347    0.32693997    0.00000654
     atom   19 type  1   force =    -0.00102627   -0.32721379    0.00000654
     atom   20 type  1   force =     0.00105550    0.32694247    0.00000654
     atom   21 type  1   force =    -0.00102579   -0.32721575    0.00000654
     atom   22 type  1   force =     0.00105476    0.32694099    0.00000654
     atom   23 type  1   force =    -0.00102756   -0.32722031    0.00000654
     atom   24 type  1   force =     0.00105497    0.32693084    0.00000654
     atom   25 type  1   force =    -0.00103161   -0.32719658    0.00000654
     atom   26 type  1   force =     0.00104673    0.32694731    0.00000654
     atom   27 type  1   force =    -0.00102939   -0.32721175    0.00000654
     atom   28 type  1   force =     0.00104624    0.32694678    0.00000654
     atom   29 type  1   force =    -0.00102949   -0.32721170    0.00000654
     atom   30 type  1   force =     0.00104556    0.32694314    0.00000654
     atom   31 type  1   force =    -0.00102947   -0.32721690    0.00000654
     atom   32 type  1   force =     0.00104576    0.32693691    0.00000654
     atom   33 type  2   force =    -0.00001488    0.00007105   -2.66947839
     atom   34 type  2   force =    -0.00001488    0.00007105    2.66947839
     atom   35 type  2   force =    -0.00001521    0.00007185   -2.66947867
     atom   36 type  2   force =    -0.00001521    0.00007185    2.66947867
     atom   37 type  2   force =    -0.00001468    0.00006998   -2.66947826
     atom   38 type  2   force =    -0.00001468    0.00006998    2.66947826
     atom   39 type  2   force =    -0.00001502    0.00007113   -2.66947399
     atom   40 type  2   force =    -0.00001502    0.00007113    2.66947399
     atom   41 type  2   force =    -0.00001541    0.00007234   -2.66947799
     atom   42 type  2   force =    -0.00001541    0.00007234    2.66947799
     atom   43 type  2   force =    -0.00001618    0.00007243   -2.66947783
     atom   44 type  2   force =    -0.00001618    0.00007243    2.66947783
     atom   45 type  2   force =    -0.00001543    0.00007202   -2.66947810
     atom   46 type  2   force =    -0.00001543    0.00007202    2.66947810
     atom   47 type  2   force =    -0.00001623    0.00007089   -2.66947458
     atom   48 type  2   force =    -0.00001623    0.00007089    2.66947458
     atom   49 type  2   force =    -0.00001600    0.00007184   -2.66947836
     atom   50 type  2   force =    -0.00001600    0.00007184    2.66947836
     atom   51 type  2   force =    -0.00001643    0.00007224   -2.66947882
     atom   52 type  2   force =    -0.00001643    0.00007224    2.66947882
     atom   53 type  2   force =    -0.00001615    0.00007121   -2.66947919
     atom   54 type  2   force =    -0.00001615    0.00007121    2.66947919
     atom   55 type  2   force =    -0.00001639    0.00007132   -2.66947439
     atom   56 type  2   force =    -0.00001639    0.00007132    2.66947439
     atom   57 type  2   force =    -0.00001706    0.00007249   -2.66947769
     atom   58 type  2   force =    -0.00001706    0.00007249    2.66947769
     atom   59 type  2   force =    -0.00001646    0.00007399   -2.66947755
     atom   60 type  2   force =    -0.00001646    0.00007399    2.66947755
     atom   61 type  2   force =    -0.00001710    0.00007134   -2.66947751
     atom   62 type  2   force =    -0.00001710    0.00007134    2.66947751
     atom   63 type  2   force =    -0.00001668    0.00007340   -2.66947393
     atom   64 type  2   force =    -0.00001668    0.00007340    2.66947393
     The core correction contribution to forces
     atom    1 type  1   force =     0.00003196    0.00793546    0.00000004
     atom    2 type  1   force =    -0.00003195   -0.00794068    0.00000004
     atom    3 type  1   force =     0.00003213    0.00793517    0.00000004
     atom    4 type  1   force =    -0.00003246   -0.00794103    0.00000004
     atom    5 type  1   force =     0.00003195    0.00793528    0.00000004
     atom    6 type  1   force =    -0.00003193   -0.00794068    0.00000004
     atom    7 type  1   force =     0.00003213    0.00793514    0.00000004
     atom    8 type  1   force =    -0.00003246   -0.00794112    0.00000004
     atom    9 type  1   force =     0.00003190    0.00793550    0.00000004
     atom   10 type  1   force =    -0.00003194   -0.00794074    0.00000004
     atom   11 type  1   force =     0.00003209    0.00793523    0.00000004
     atom   12 type  1   force =    -0.00003248   -0.00794108    0.00000004
     atom   13 type  1   force =     0.00003190    0.00793535    0.00000004
     atom   14 type  1   force =    -0.00003196   -0.00794075    0.00000004
     atom   15 type  1   force =     0.00003209    0.00793521    0.00000004
     atom   16 type  1   force =    -0.00003247   -0.00794113    0.00000004
     atom   17 type  1   force =     0.00003189    0.00793554    0.00000004
     atom   18 type  1   force =    -0.00003197   -0.00794075    0.00000004
     atom   19 type  1   force =     0.00003207    0.00793523    0.00000004
     atom   20 type  1   force =    -0.00003246   -0.00794104    0.00000004
     atom   21 type  1   force =     0.00003189    0.00793533    0.00000004
     atom   22 type  1   force =    -0.00003194   -0.00794069    0.00000004
     atom   23 type  1   force =     0.00003208    0.00793518    0.00000004
     atom   24 type  1   force =    -0.00003246   -0.00794109    0.00000004
     atom   25 type  1   force =     0.00003188    0.00793549    0.00000004
     atom   26 type  1   force =    -0.00003202   -0.00794068    0.00000004
     atom   27 type  1   force =     0.00003209    0.00793523    0.00000004
     atom   28 type  1   force =    -0.00003255   -0.00794103    0.00000004
     atom   29 type  1   force =     0.00003189    0.00793533    0.00000004
     atom   30 type  1   force =    -0.00003204   -0.00794068    0.00000004
     atom   31 type  1   force =     0.00003208    0.00793520    0.00000004
     atom   32 type  1   force =    -0.00003256   -0.00794110    0.00000004
     atom   33 type  2   force =     0.00000000    0.00000000    0.00000000
     atom   34 type  2   force =     0.00000000    0.00000000    0.00000000
     atom   35 type  2   force =     0.00000000    0.00000000    0.00000000
     atom   36 type  2   force =     0.00000000    0.00000000    0.00000000
     atom   37 type  2   force =     0.00000000    0.00000000    0.00000000
     atom   38 type  2   force =     0.00000000    0.00000000    0.00000000
     atom   39 type  2   force =     0.00000000    0.00000000    0.00000000
     atom   40 type  2   force =     0.00000000    0.00000000    0.00000000
     atom   41 type  2   force =     0.00000000    0.00000000    0.00000000
     atom   42 type  2   force =     0.00000000    0.00000000    0.00000000
     atom   43 type  2   force =     0.00000000    0.00000000    0.00000000
     atom   44 type  2   force =     0.00000000    0.00000000    0.00000000
     atom   45 type  2   force =     0.00000000    0.00000000    0.00000000
     atom   46 type  2   force =     0.00000000    0.00000000    0.00000000
     atom   47 type  2   force =     0.00000000    0.00000000    0.00000000
     atom   48 type  2   force =     0.00000000    0.00000000    0.00000000
     atom   49 type  2   force =     0.00000000    0.00000000    0.00000000
     atom   50 type  2   force =     0.00000000    0.00000000    0.00000000
     atom   51 type  2   force =     0.00000000    0.00000000    0.00000000
     atom   52 type  2   force =     0.00000000    0.00000000    0.00000000
     atom   53 type  2   force =     0.00000000    0.00000000    0.00000000
     atom   54 type  2   force =     0.00000000    0.00000000    0.00000000
     atom   55 type  2   force =     0.00000000    0.00000000    0.00000000
     atom   56 type  2   force =     0.00000000    0.00000000    0.00000000
     atom   57 type  2   force =     0.00000000    0.00000000    0.00000000
     atom   58 type  2   force =     0.00000000    0.00000000    0.00000000
     atom   59 type  2   force =     0.00000000    0.00000000    0.00000000
     atom   60 type  2   force =     0.00000000    0.00000000    0.00000000
     atom   61 type  2   force =     0.00000000    0.00000000    0.00000000
     atom   62 type  2   force =     0.00000000    0.00000000    0.00000000
     atom   63 type  2   force =     0.00000000    0.00000000    0.00000000
     atom   64 type  2   force =     0.00000000    0.00000000    0.00000000
     The Hubbard contrib.    to forces
     atom    1 type  1   force =     0.00000000    0.00000000    0.00000000
     atom    2 type  1   force =     0.00000000    0.00000000    0.00000000
     atom    3 type  1   force =     0.00000000    0.00000000    0.00000000
     atom    4 type  1   force =     0.00000000    0.00000000    0.00000000
     atom    5 type  1   force =     0.00000000    0.00000000    0.00000000
     atom    6 type  1   force =     0.00000000    0.00000000    0.00000000
     atom    7 type  1   force =     0.00000000    0.00000000    0.00000000
     atom    8 type  1   force =     0.00000000    0.00000000    0.00000000
     atom    9 type  1   force =     0.00000000    0.00000000    0.00000000
     atom   10 type  1   force =     0.00000000    0.00000000    0.00000000
     atom   11 type  1   force =     0.00000000    0.00000000    0.00000000
     atom   12 type  1   force =     0.00000000    0.00000000    0.00000000
     atom   13 type  1   force =     0.00000000    0.00000000    0.00000000
     atom   14 type  1   force =     0.00000000    0.00000000    0.00000000
     atom   15 type  1   force =     0.00000000    0.00000000    0.00000000
     atom   16 type  1   force =     0.00000000    0.00000000    0.00000000
     atom   17 type  1   force =     0.00000000    0.00000000    0.00000000
     atom   18 type  1   force =     0.00000000    0.00000000    0.00000000
     atom   19 type  1   force =     0.00000000    0.00000000    0.00000000
     atom   20 type  1   force =     0.00000000    0.00000000    0.00000000
     atom   21 type  1   force =     0.00000000    0.00000000    0.00000000
     atom   22 type  1   force =     0.00000000    0.00000000    0.00000000
     atom   23 type  1   force =     0.00000000    0.00000000    0.00000000
     atom   24 type  1   force =     0.00000000    0.00000000    0.00000000
     atom   25 type  1   force =     0.00000000    0.00000000    0.00000000
     atom   26 type  1   force =     0.00000000    0.00000000    0.00000000
     atom   27 type  1   force =     0.00000000    0.00000000    0.00000000
     atom   28 type  1   force =     0.00000000    0.00000000    0.00000000
     atom   29 type  1   force =     0.00000000    0.00000000    0.00000000
     atom   30 type  1   force =     0.00000000    0.00000000    0.00000000
     atom   31 type  1   force =     0.00000000    0.00000000    0.00000000
     atom   32 type  1   force =     0.00000000    0.00000000    0.00000000
     atom   33 type  2   force =     0.00000000    0.00000000    0.00000000
     atom   34 type  2   force =     0.00000000    0.00000000    0.00000000
     atom   35 type  2   force =     0.00000000    0.00000000    0.00000000
     atom   36 type  2   force =     0.00000000    0.00000000    0.00000000
     atom   37 type  2   force =     0.00000000    0.00000000    0.00000000
     atom   38 type  2   force =     0.00000000    0.00000000    0.00000000
     atom   39 type  2   force =     0.00000000    0.00000000    0.00000000
     atom   40 type  2   force =     0.00000000    0.00000000    0.00000000
     atom   41 type  2   force =     0.00000000    0.00000000    0.00000000
     atom   42 type  2   force =     0.00000000    0.00000000    0.00000000
     atom   43 type  2   force =     0.00000000    0.00000000    0.00000000
     atom   44 type  2   force =     0.00000000    0.00000000    0.00000000
     atom   45 type  2   force =     0.00000000    0.00000000    0.00000000
     atom   46 type  2   force =     0.00000000    0.00000000    0.00000000
     atom   47 type  2   force =     0.00000000    0.00000000    0.00000000
     atom   48 type  2   force =     0.00000000    0.00000000    0.00000000
     atom   49 type  2   force =     0.00000000    0.00000000    0.00000000
     atom   50 type  2   force =     0.00000000    0.00000000    0.00000000
     atom   51 type  2   force =     0.00000000    0.00000000    0.00000000
     atom   52 type  2   force =     0.00000000    0.00000000    0.00000000
     atom   53 type  2   force =     0.00000000    0.00000000    0.00000000
     atom   54 type  2   force =     0.00000000    0.00000000    0.00000000
     atom   55 type  2   force =     0.00000000    0.00000000    0.00000000
     atom   56 type  2   force =     0.00000000    0.00000000    0.00000000
     atom   57 type  2   force =     0.00000000    0.00000000    0.00000000
     atom   58 type  2   force =     0.00000000    0.00000000    0.00000000
     atom   59 type  2   force =     0.00000000    0.00000000    0.00000000
     atom   60 type  2   force =     0.00000000    0.00000000    0.00000000
     atom   61 type  2   force =     0.00000000    0.00000000    0.00000000
     atom   62 type  2   force =     0.00000000    0.00000000    0.00000000
     atom   63 type  2   force =     0.00000000    0.00000000    0.00000000
     atom   64 type  2   force =     0.00000000    0.00000000    0.00000000
     The SCF correction term to forces
     atom    1 type  1   force =     0.00000050   -0.00000089    0.00000000
     atom    2 type  1   force =     0.00000041    0.00000362   -0.00000000
     atom    3 type  1   force =    -0.00000042    0.00000285    0.00000000
     atom    4 type  1   force =     0.00000006   -0.00000006   -0.00000001
     atom    5 type  1   force =     0.00000085   -0.00000061   -0.00000000
     atom    6 type  1   force =     0.00000065   -0.00000006    0.00000000
     atom    7 type  1   force =    -0.00000118   -0.00000153   -0.00000000
     atom    8 type  1   force =    -0.00000118   -0.00000315    0.00000001
     atom    9 type  1   force =     0.00000075   -0.00000028    0.00000000
     atom   10 type  1   force =    -0.00000017    0.00000275    0.00000000
     atom   11 type  1   force =     0.00000020    0.00000277    0.00000000
     atom   12 type  1   force =     0.00000027    0.00000130    0.00000001
     atom   13 type  1   force =     0.00000079   -0.00000088   -0.00000000
     atom   14 type  1   force =     0.00000001   -0.00000206   -0.00000000
     atom   15 type  1   force =    -0.00000035   -0.00000268   -0.00000000
     atom   16 type  1   force =     0.00000093   -0.00000227   -0.00000001
     atom   17 type  1   force =    -0.00000081   -0.00000186   -0.00000000
     atom   18 type  1   force =    -0.00000134    0.00000278   -0.00000000
     atom   19 type  1   force =    -0.00000059    0.00000444   -0.00000000
     atom   20 type  1   force =     0.00000018    0.00000203    0.00000000
     atom   21 type  1   force =    -0.00000057   -0.00000102    0.00000000
     atom   22 type  1   force =    -0.00000088   -0.00000113   -0.00000000
     atom   23 type  1   force =     0.00000099   -0.00000123    0.00000000
     atom   24 type  1   force =     0.00000080   -0.00000275    0.00000000
     atom   25 type  1   force =    -0.00000045   -0.00000309    0.00000000
     atom   26 type  1   force =     0.00000115    0.00000359   -0.00000000
     atom   27 type  1   force =     0.00000086    0.00000449   -0.00000000
     atom   28 type  1   force =    -0.00000050   -0.00000000    0.00000000
     atom   29 type  1   force =    -0.00000110   -0.00000144    0.00000000
     atom   30 type  1   force =     0.00000022    0.00000080   -0.00000000
     atom   31 type  1   force =     0.00000051   -0.00000011   -0.00000000
     atom   32 type  1   force =    -0.00000058   -0.00000426    0.00000000
     atom   33 type  2   force =     0.00000000    0.00000156    0.00000000
     atom   34 type  2   force =     0.00000001    0.00000156   -0.00000002
     atom   35 type  2   force =     0.00000012   -0.00000039   -0.00000022
     atom   36 type  2   force =     0.00000012   -0.00000039    0.00000022
     atom   37 type  2   force =    -0.00000010    0.00000004   -0.00000043
     atom   38 type  2   force =    -0.00000010    0.00000004    0.00000044
     atom   39 type  2   force =    -0.00000010   -0.00000111    0.00000050
     atom   40 type  2   force =    -0.00000010   -0.00000111   -0.00000050
     atom   41 type  2   force =    -0.00000002    0.00000129    0.00000001
     atom   42 type  2   force =    -0.00000003    0.00000129   -0.00000000
     atom   43 type  2   force =     0.00000018   -0.00000004   -0.00000067
     atom   44 type  2   force =     0.00000018   -0.00000004    0.00000067
     atom   45 type  2   force =    -0.00000004   -0.00000086   -0.00000022
     atom   46 type  2   force =    -0.00000004   -0.00000086    0.00000022
     atom   47 type  2   force =     0.00000026   -0.00000069    0.00000050
     atom   48 type  2   force =     0.00000026   -0.00000069   -0.00000050
     atom   49 type  2   force =    -0.00000027    0.00000177    0.00000035
     atom   50 type  2   force =    -0.00000027    0.00000177   -0.00000035
     atom   51 type  2   force =    -0.00000005    0.00000008   -0.00000067
     atom   52 type  2   force =    -0.00000005    0.00000008    0.00000066
     atom   53 type  2   force =     0.00000003   -0.00000025   -0.00000013
     atom   54 type  2   force =     0.00000003   -0.00000025    0.00000012
     atom   55 type  2   force =     0.00000000   -0.00000133    0.00000022
     atom   56 type  2   force =     0.00000000   -0.00000133   -0.00000021
     atom   57 type  2   force =     0.00000031    0.00000201    0.00000028
     atom   58 type  2   force =     0.00000031    0.00000201   -0.00000027
     atom   59 type  2   force =    -0.00000025   -0.00000064   -0.00000037
     atom   60 type  2   force =    -0.00000025   -0.00000063    0.00000036
     atom   61 type  2   force =     0.00000011    0.00000062   -0.00000021
     atom   62 type  2   force =     0.00000011    0.00000062    0.00000021
     atom   63 type  2   force =    -0.00000018   -0.00000206    0.00000035
     atom   64 type  2   force =    -0.00000018   -0.00000206   -0.00000035

     Total force =     0.000624     Total SCF correction =     0.000016

     Writing all to output data dir TMPDIR/pwscf.save/
 
     init_run     :      5.13s CPU      9.69s WALL (       1 calls)
     electrons    :     51.73s CPU     54.73s WALL (       1 calls)
     forces       :      1.08s CPU      1.20s WALL (       1 calls)

     Called by init_run:
     wfcinit      :      2.04s CPU      4.71s WALL (       1 calls)
     potinit      :      0.89s CPU      1.46s WALL (       1 calls)
     hinit0       :      0.19s CPU      0.85s WALL (       1 calls)

     Called by electrons:
     c_bands      :     40.83s CPU     42.25s WALL (      13 calls)
     sum_band     :      6.01s CPU      6.34s WALL (      13 calls)
     v_of_rho     :      4.90s CPU      5.81s WALL (      14 calls)
     newd         :      0.34s CPU      1.05s WALL (      14 calls)
     mix_rho      :      0.16s CPU      0.18s WALL (      13 calls)
     vdW_kernel   :      0.39s CPU      0.57s WALL (       1 calls)

     Called by c_bands:
     init_us_2    :      0.64s CPU      0.65s WALL (     140 calls)
     init_us_2:cp :      0.63s CPU      0.65s WALL (     140 calls)
     crmmdiagg    :     14.44s CPU     14.80s WALL (      45 calls)
     wfcrot       :     10.41s CPU     13.24s WALL (      50 calls)

     Called by *rmmdiagg:
     h_psi        :     29.49s CPU     30.49s WALL (     366 calls)
     s_psi        :      2.77s CPU      2.81s WALL (     366 calls)
     g_psi        :      0.02s CPU      0.02s WALL (     145 calls)

     Called by h_psi:
     h_psi:calbec :      3.29s CPU      3.71s WALL (     366 calls)
     vloc_psi     :     22.88s CPU     23.28s WALL (     366 calls)
     add_vuspsi   :      3.17s CPU      3.34s WALL (     366 calls)

     General routines
     calbec       :      4.40s CPU      4.92s WALL (     451 calls)
     fft          :      3.27s CPU      3.96s WALL (     941 calls)
     ffts         :      0.06s CPU      0.06s WALL (      27 calls)
     fftw         :     24.72s CPU     25.14s WALL (   33875 calls)
     interpolate  :      0.08s CPU      0.08s WALL (      14 calls)
 
     Parallel routines
 
     PWSCF        :     59.78s CPU   1m12.32s WALL

 
   This run was terminated on:  22:16: 4   7May2024            

=------------------------------------------------------------------------------=
   JOB DONE.
=------------------------------------------------------------------------------=
