 ANIMSTEPS   7
 CRYSTAL 
 PRIMVEC 
  5.7275649276  0.0000000000  0.0000000000
  0.0000000000  5.7275649276  0.0000000000
  0.0000000000  0.0000000000 13.7500000000
 PRIMCOORD   1
   13  1
Al    0.0000000000    0.0000000000    4.0000000000    0.0000000000    0.0000000000    0.0000000000
Al    2.8637824638    0.0000000000    4.0000000000    0.0000000000    0.0000000000    0.0000000000
Al    0.0000000000    2.8637824638    4.0000000000    0.0000000000    0.0000000000    0.0000000000
Al    2.8637824638    2.8637824638    4.0000000000    0.0000000000    0.0000000000    0.0000000000
Al    1.4318912319    1.4318912319    6.0250000000    0.0000000000    0.0000000000    0.0000000000
Al    4.2956736957    1.4318912319    6.0250000000    0.0000000000    0.0000000000    0.0000000000
Al    1.4318912319    4.2956736957    6.0250000000    0.0000000000    0.0000000000    0.0000000000
Al    4.2956736957    4.2956736957    6.0250000000    0.0000000000    0.0000000000    0.0000000000
Al   -0.0727584676   -0.0727584676    7.9964398610    0.0040162779    0.0040162779    0.0075931179
Al    2.9365409314   -0.0727584676    7.9964398610   -0.0040162779    0.0040162779    0.0075931179
Al   -0.0727584676    2.9365409314    7.9964398610    0.0040162779   -0.0040162779    0.0075931179
Al    2.9365409314    2.9365409314    7.9964398610   -0.0040162779   -0.0040162779    0.0075931179
Au    1.4318912319    1.4318912319    9.4013916343    0.0000000000    0.0000000000   -0.0024040956
 PRIMCOORD   2
   13  1
Al    0.0000000000    0.0000000000    4.0000000000    0.0000000000    0.0000000000    0.0000000000
Al    2.8637824638    0.0000000000    4.0000000000    0.0000000000    0.0000000000    0.0000000000
Al    0.0000000000    2.8637824638    4.0000000000    0.0000000000    0.0000000000    0.0000000000
Al    2.8637824638    2.8637824638    4.0000000000    0.0000000000    0.0000000000    0.0000000000
Al    1.4318912319    1.4318912319    6.0250000000    0.0000000000    0.0000000000    0.0000000000
Al    4.2956736957    1.4318912319    6.0250000000    0.0000000000    0.0000000000    0.0000000000
Al    1.4318912319    4.2956736957    6.0250000000    0.0000000000    0.0000000000    0.0000000000
Al    4.2956736957    4.2956736957    6.0250000000    0.0000000000    0.0000000000    0.0000000000
Al    0.0908863737   -0.0158979447    8.1593932554    0.0018259768   -0.0004167288    0.0008805773
Al    3.0146372929   -0.0691486350    8.0007588786    0.0043384009   -0.0013514433    0.0028907836
Al    0.0908863737    2.8796804085    8.1593932554    0.0018259768    0.0004167288    0.0008805773
Al    3.0146372929    2.9329310989    8.0007588786    0.0043384009    0.0013514433    0.0028907836
Au    1.9298138119    1.4318912319    9.6594241586   -0.0254631574    0.0000000000   -0.0109463326
 PRIMCOORD   3
   13  1
Al    0.0000000000    0.0000000000    4.0000000000    0.0000000000    0.0000000000    0.0000000000
Al    2.8637824638    0.0000000000    4.0000000000    0.0000000000    0.0000000000    0.0000000000
Al    0.0000000000    2.8637824638    4.0000000000    0.0000000000    0.0000000000    0.0000000000
Al    2.8637824638    2.8637824638    4.0000000000    0.0000000000    0.0000000000    0.0000000000
Al    1.4318912319    1.4318912319    6.0250000000    0.0000000000    0.0000000000    0.0000000000
Al    4.2956736957    1.4318912319    6.0250000000    0.0000000000    0.0000000000    0.0000000000
Al    1.4318912319    4.2956736957    6.0250000000    0.0000000000    0.0000000000    0.0000000000
Al    4.2956736957    4.2956736957    6.0250000000    0.0000000000    0.0000000000    0.0000000000
Al    0.0502972876   -0.0099737647    8.1315042860    0.0017945498   -0.0000221389    0.0001932591
Al    2.9373186126   -0.0708221067    7.9775710586    0.0029888711   -0.0012198524    0.0009400479
Al    0.0502972876    2.8737562285    8.1315042860    0.0017945498    0.0000221389    0.0001932591
Al    2.9373186126    2.9346045706    7.9775710586    0.0029888711    0.0012198524    0.0009400479
Au    2.4205723949    1.4318912319    9.8466613579   -0.0169288472    0.0000000000   -0.0032430395
 PRIMCOORD   4
   13  1
Al    0.0000000000    0.0000000000    4.0000000000    0.0000000000    0.0000000000    0.0000000000
Al    2.8637824638    0.0000000000    4.0000000000    0.0000000000    0.0000000000    0.0000000000
Al    0.0000000000    2.8637824638    4.0000000000    0.0000000000    0.0000000000    0.0000000000
Al    2.8637824638    2.8637824638    4.0000000000    0.0000000000    0.0000000000    0.0000000000
Al    1.4318912319    1.4318912319    6.0250000000    0.0000000000    0.0000000000    0.0000000000
Al    4.2956736957    1.4318912319    6.0250000000    0.0000000000    0.0000000000    0.0000000000
Al    1.4318912319    4.2956736957    6.0250000000    0.0000000000    0.0000000000    0.0000000000
Al    4.2956736957    4.2956736957    6.0250000000    0.0000000000    0.0000000000    0.0000000000
Al    0.0000648670   -0.0145553497    8.1071504930    0.0000002918   -0.0002556884   -0.0007038209
Al    2.8638626650   -0.0656125272    7.9811481431    0.0000064063   -0.0010320292    0.0011988562
Al    0.0000648670    2.8783378135    8.1071504930    0.0000002918    0.0002556884   -0.0007038209
Al    2.8638626650    2.9293949911    7.9811481431    0.0000064063    0.0010320292    0.0011988562
Au    2.8630985036    1.4318912319    9.9278356297   -0.0000217462    0.0000000000   -0.0017591344
 PRIMCOORD   5
   13  1
Al    0.0000000000    0.0000000000    4.0000000000    0.0000000000    0.0000000000    0.0000000000
Al    2.8637824638    0.0000000000    4.0000000000    0.0000000000    0.0000000000    0.0000000000
Al    0.0000000000    2.8637824638    4.0000000000    0.0000000000    0.0000000000    0.0000000000
Al    2.8637824638    2.8637824638    4.0000000000    0.0000000000    0.0000000000    0.0000000000
Al    1.4318912319    1.4318912319    6.0250000000    0.0000000000    0.0000000000    0.0000000000
Al    4.2956736957    1.4318912319    6.0250000000    0.0000000000    0.0000000000    0.0000000000
Al    1.4318912319    4.2956736957    6.0250000000    0.0000000000    0.0000000000    0.0000000000
Al    4.2956736957    4.2956736957    6.0250000000    0.0000000000    0.0000000000    0.0000000000
Al   -0.0501718121   -0.0099921635    8.1312695691   -0.0017874736   -0.0000234495    0.0002050839
Al    2.7904072401   -0.0707487138    7.9778250324   -0.0029782884   -0.0012111220    0.0009542922
Al   -0.0501718121    2.8737746274    8.1312695691   -0.0017874736    0.0000234495    0.0002050839
Al    2.7904072401    2.9345311776    7.9778250324   -0.0029782884    0.0012111220    0.0009542922
Au    3.3064790192    1.4318912319    9.8474263699    0.0168723695    0.0000000000   -0.0033369906
 PRIMCOORD   6
   13  1
Al    0.0000000000    0.0000000000    4.0000000000    0.0000000000    0.0000000000    0.0000000000
Al    2.8637824638    0.0000000000    4.0000000000    0.0000000000    0.0000000000    0.0000000000
Al    0.0000000000    2.8637824638    4.0000000000    0.0000000000    0.0000000000    0.0000000000
Al    2.8637824638    2.8637824638    4.0000000000    0.0000000000    0.0000000000    0.0000000000
Al    1.4318912319    1.4318912319    6.0250000000    0.0000000000    0.0000000000    0.0000000000
Al    4.2956736957    1.4318912319    6.0250000000    0.0000000000    0.0000000000    0.0000000000
Al    1.4318912319    4.2956736957    6.0250000000    0.0000000000    0.0000000000    0.0000000000
Al    4.2956736957    4.2956736957    6.0250000000    0.0000000000    0.0000000000    0.0000000000
Al   -0.0911125557   -0.0157808844    8.1590625262   -0.0018101468   -0.0004125376    0.0009210321
Al    2.7131674983   -0.0687155113    8.0006117683   -0.0043663131   -0.0014539262    0.0028781711
Al   -0.0911125557    2.8795633483    8.1590625262   -0.0018101468    0.0004125376    0.0009210321
Al    2.7131674983    2.9324979752    8.0006117683   -0.0043663131    0.0014539262    0.0028781711
Au    3.7963204118    1.4318912319    9.6606378974    0.0254800190    0.0000000000   -0.0109888334
 PRIMCOORD   7
   13  1
Al    0.0000000000    0.0000000000    4.0000000000    0.0000000000    0.0000000000    0.0000000000
Al    2.8637824638    0.0000000000    4.0000000000    0.0000000000    0.0000000000    0.0000000000
Al    0.0000000000    2.8637824638    4.0000000000    0.0000000000    0.0000000000    0.0000000000
Al    2.8637824638    2.8637824638    4.0000000000    0.0000000000    0.0000000000    0.0000000000
Al    1.4318912319    1.4318912319    6.0250000000    0.0000000000    0.0000000000    0.0000000000
Al    4.2956736957    1.4318912319    6.0250000000    0.0000000000    0.0000000000    0.0000000000
Al    1.4318912319    4.2956736957    6.0250000000    0.0000000000    0.0000000000    0.0000000000
Al    4.2956736957    4.2956736957    6.0250000000    0.0000000000    0.0000000000    0.0000000000
Al    0.0723226214   -0.0731270933    7.9984399474   -0.0039194712    0.0041265288    0.0074321183
Al    2.7914598424   -0.0731270933    7.9984399474    0.0039194712    0.0041265288    0.0074321183
Al    0.0723226214    2.9369095572    7.9984399474   -0.0039194712   -0.0041265288    0.0074321183
Al    2.7914598424    2.9369095572    7.9984399474    0.0039194712   -0.0041265288    0.0074321183
Au    4.2956736957    1.4318912319    9.4043801855    0.0000000000    0.0000000000   -0.0025994521
