
     Program NEB v.7.2 starts on 29Jan2024 at 13:56: 5 

     This program is part of the open-source Quantum ESPRESSO suite
     for quantum simulation of materials; please cite
         "P. Giannozzi et al., J. Phys.:Condens. Matter 21 395502 (2009);
         "P. Giannozzi et al., J. Phys.:Condens. Matter 29 465901 (2017);
         "P. Giannozzi et al., J. Chem. Phys. 152 154105 (2020);
          URL http://www.quantum-espresso.org", 
     in publications or presentations arising from this work. More details at
     http://www.quantum-espresso.org/quote

     Parallel version (MPI & OpenMP), running on     640 processor cores
     Number of MPI processes:               640
     Threads/MPI process:                     1

     MPI processes distributed on     5 nodes
     path-images division:  nimage    =       5
     225575 MiB available memory on the printing compute node when the environment starts
 

     Parsing file: neb_auto.inp
     Message from routine parse_and_split:
     parsing error?
     Message from routine parse_and_split:
     parsing error?
     Message from routine parse_and_split:
     parsing error?
     Reading input from pw_1.in
     Reading input from pw_2.in

     reading file 'pwscf.path'

 
     string_method                 =    neb
     restart_mode                  =    restart
     opt_scheme                    =    broyden
     num_of_images                 =    7
     nstep_path                    =    1000
     CI_scheme                     =    auto
     first_last_opt                =    F
     use_freezing                  =    F
     ds                            =    2.0000 a.u.
     k_max                         =    0.3000 a.u.
     k_min                         =    0.2000 a.u.
     suggested k_max               =    0.1542 a.u.
     suggested k_min               =    0.1028 a.u.
     path_thr                      =    0.0500 eV / A

     ------------------------------ iteration  16 ------------------------------

     cpu =  0   tcpu =      1.5    self-consistency for image   2
     Message from routine setup:
     using ibrav=0 with symmetry is DISCOURAGED, use correct ibrav instead

     activation energy (->) =   0.694954 eV
     activation energy (<-) =   0.696410 eV

     image        energy (eV)        error (eV/A)        frozen

         1      -2656.3393108            0.206619            T
         2      -2656.1424593            0.012918            F
         3      -2655.7514113            0.023455            F
         4      -2655.6443565            0.008438            F
         5      -2655.7504553            0.021868            F
         6      -2656.1401644            0.021648            F
         7      -2656.3407664            0.201781            T

     climbing image =  4

     path length          =  6.293 bohr
     inter-image distance =  1.049 bohr

     ---------------------------------------------------------------------------


     neb: convergence achieved in  16 iterations
 
     NEB          :     10.35s CPU     16.57s WALL

 
   This run was terminated on:  13:56:21  29Jan2024            

=------------------------------------------------------------------------------=
   JOB DONE.
=------------------------------------------------------------------------------=
