 ANIMSTEPS   7
 CRYSTAL 
 PRIMVEC 
  5.7275649276  0.0000000000  0.0000000000
  0.0000000000  5.7275649276  0.0000000000
  0.0000000000  0.0000000000 13.7500000000
 PRIMCOORD   1
   13  1
Al    0.0000000000    0.0000000000    4.0000000000    0.0000000000    0.0000000000    0.0000000000
Al    2.8637824638    0.0000000000    4.0000000000    0.0000000000    0.0000000000    0.0000000000
Al    0.0000000000    2.8637824638    4.0000000000    0.0000000000    0.0000000000    0.0000000000
Al    2.8637824638    2.8637824638    4.0000000000    0.0000000000    0.0000000000    0.0000000000
Al    1.4318912319    1.4318912319    6.0250000000    0.0000000000    0.0000000000    0.0000000000
Al    4.2956736957    1.4318912319    6.0250000000    0.0000000000    0.0000000000    0.0000000000
Al    1.4318912319    4.2956736957    6.0250000000    0.0000000000    0.0000000000    0.0000000000
Al    4.2956736957    4.2956736957    6.0250000000    0.0000000000    0.0000000000    0.0000000000
Al   -0.0727584676   -0.0727584676    7.9964398610    0.0040162779    0.0040162779    0.0075931179
Al    2.9365409314   -0.0727584676    7.9964398610   -0.0040162779    0.0040162779    0.0075931179
Al   -0.0727584676    2.9365409314    7.9964398610    0.0040162779   -0.0040162779    0.0075931179
Al    2.9365409314    2.9365409314    7.9964398610   -0.0040162779   -0.0040162779    0.0075931179
Au    1.4318912319    1.4318912319    9.4013916343    0.0000000000    0.0000000000   -0.0024040956
 PRIMCOORD   2
   13  1
Al    0.0000000000    0.0000000000    4.0000000000    0.0000000000    0.0000000000    0.0000000000
Al    2.8637824638    0.0000000000    4.0000000000    0.0000000000    0.0000000000    0.0000000000
Al    0.0000000000    2.8637824638    4.0000000000    0.0000000000    0.0000000000    0.0000000000
Al    2.8637824638    2.8637824638    4.0000000000    0.0000000000    0.0000000000    0.0000000000
Al    1.4318912319    1.4318912319    6.0250000000    0.0000000000    0.0000000000    0.0000000000
Al    4.2956736957    1.4318912319    6.0250000000    0.0000000000    0.0000000000    0.0000000000
Al    1.4318912319    4.2956736957    6.0250000000    0.0000000000    0.0000000000    0.0000000000
Al    4.2956736957    4.2956736957    6.0250000000    0.0000000000    0.0000000000    0.0000000000
Al    0.0874501247   -0.0163301819    8.1533211375    0.0023245500   -0.0000446727    0.0012483894
Al    3.0150427714   -0.0775989879    8.0095155227    0.0045026147   -0.0000251523    0.0017934406
Al    0.0874501247    2.8801126457    8.1533211375    0.0023245500    0.0000446727    0.0012483894
Al    3.0150427714    2.9413814518    8.0095155227    0.0045026147    0.0000251523    0.0017934406
Au    1.9341092825    1.4318912319    9.6548101744   -0.0264326550    0.0000000000   -0.0099708152
 PRIMCOORD   3
   13  1
Al    0.0000000000    0.0000000000    4.0000000000    0.0000000000    0.0000000000    0.0000000000
Al    2.8637824638    0.0000000000    4.0000000000    0.0000000000    0.0000000000    0.0000000000
Al    0.0000000000    2.8637824638    4.0000000000    0.0000000000    0.0000000000    0.0000000000
Al    2.8637824638    2.8637824638    4.0000000000    0.0000000000    0.0000000000    0.0000000000
Al    1.4318912319    1.4318912319    6.0250000000    0.0000000000    0.0000000000    0.0000000000
Al    4.2956736957    1.4318912319    6.0250000000    0.0000000000    0.0000000000    0.0000000000
Al    1.4318912319    4.2956736957    6.0250000000    0.0000000000    0.0000000000    0.0000000000
Al    4.2956736957    4.2956736957    6.0250000000    0.0000000000    0.0000000000    0.0000000000
Al    0.0485037401   -0.0112653090    8.1249038525    0.0019601495    0.0003012264    0.0005900981
Al    2.9376013741   -0.0767881254    7.9841355221    0.0029815671   -0.0002602412    0.0000519305
Al    0.0485037401    2.8750477728    8.1249038525    0.0019601495   -0.0003012264    0.0005900981
Al    2.9376013741    2.9405705893    7.9841355221    0.0029815671    0.0002602412    0.0000519305
Au    2.4216526324    1.4318912319    9.8443711991   -0.0171081701    0.0000000000   -0.0021842020
 PRIMCOORD   4
   13  1
Al    0.0000000000    0.0000000000    4.0000000000    0.0000000000    0.0000000000    0.0000000000
Al    2.8637824638    0.0000000000    4.0000000000    0.0000000000    0.0000000000    0.0000000000
Al    0.0000000000    2.8637824638    4.0000000000    0.0000000000    0.0000000000    0.0000000000
Al    2.8637824638    2.8637824638    4.0000000000    0.0000000000    0.0000000000    0.0000000000
Al    1.4318912319    1.4318912319    6.0250000000    0.0000000000    0.0000000000    0.0000000000
Al    4.2956736957    1.4318912319    6.0250000000    0.0000000000    0.0000000000    0.0000000000
Al    1.4318912319    4.2956736957    6.0250000000    0.0000000000    0.0000000000    0.0000000000
Al    4.2956736957    4.2956736957    6.0250000000    0.0000000000    0.0000000000    0.0000000000
Al    0.0003378394   -0.0158430630    8.1018562840    0.0000089418    0.0001222871   -0.0003101699
Al    2.8642892256   -0.0735504652    7.9824995408   -0.0000079516    0.0001372366    0.0002525757
Al    0.0003378394    2.8796255269    8.1018562840    0.0000089418   -0.0001222871   -0.0003101699
Al    2.8642892256    2.9373329291    7.9824995408   -0.0000079516   -0.0001372366    0.0002525757
Au    2.8623348009    1.4318912319    9.9155847939   -0.0000584903    0.0000000000    0.0002818174
 PRIMCOORD   5
   13  1
Al    0.0000000000    0.0000000000    4.0000000000    0.0000000000    0.0000000000    0.0000000000
Al    2.8637824638    0.0000000000    4.0000000000    0.0000000000    0.0000000000    0.0000000000
Al    0.0000000000    2.8637824638    4.0000000000    0.0000000000    0.0000000000    0.0000000000
Al    2.8637824638    2.8637824638    4.0000000000    0.0000000000    0.0000000000    0.0000000000
Al    1.4318912319    1.4318912319    6.0250000000    0.0000000000    0.0000000000    0.0000000000
Al    4.2956736957    1.4318912319    6.0250000000    0.0000000000    0.0000000000    0.0000000000
Al    1.4318912319    4.2956736957    6.0250000000    0.0000000000    0.0000000000    0.0000000000
Al    4.2956736957    4.2956736957    6.0250000000    0.0000000000    0.0000000000    0.0000000000
Al   -0.0485416590   -0.0112650737    8.1252833549   -0.0019638628    0.0003129504    0.0005498808
Al    2.7900890414   -0.0775303255    7.9824375799   -0.0029536717   -0.0000562468    0.0001746766
Al   -0.0485416590    2.8750475376    8.1252833549   -0.0019638628   -0.0003129504    0.0005498808
Al    2.7900890414    2.9413127893    7.9824375799   -0.0029536717    0.0000562468    0.0001746766
Au    3.3036265379    1.4318912319    9.8424216441    0.0170924409    0.0000000000   -0.0020514979
 PRIMCOORD   6
   13  1
Al    0.0000000000    0.0000000000    4.0000000000    0.0000000000    0.0000000000    0.0000000000
Al    2.8637824638    0.0000000000    4.0000000000    0.0000000000    0.0000000000    0.0000000000
Al    0.0000000000    2.8637824638    4.0000000000    0.0000000000    0.0000000000    0.0000000000
Al    2.8637824638    2.8637824638    4.0000000000    0.0000000000    0.0000000000    0.0000000000
Al    1.4318912319    1.4318912319    6.0250000000    0.0000000000    0.0000000000    0.0000000000
Al    4.2956736957    1.4318912319    6.0250000000    0.0000000000    0.0000000000    0.0000000000
Al    1.4318912319    4.2956736957    6.0250000000    0.0000000000    0.0000000000    0.0000000000
Al    4.2956736957    4.2956736957    6.0250000000    0.0000000000    0.0000000000    0.0000000000
Al   -0.0875802020   -0.0161007930    8.1534150112   -0.0022858028   -0.0000836994    0.0012245313
Al    2.7130240553   -0.0774189209    8.0088227915   -0.0046875435   -0.0002733404    0.0016112058
Al   -0.0875802020    2.8798832569    8.1534150112   -0.0022858028    0.0000836994    0.0012245313
Al    2.7130240553    2.9412013848    8.0088227915   -0.0046875435    0.0002733404    0.0016112058
Au    3.7902132164    1.4318912319    9.6539853775    0.0267179120    0.0000000000   -0.0094500739
 PRIMCOORD   7
   13  1
Al    0.0000000000    0.0000000000    4.0000000000    0.0000000000    0.0000000000    0.0000000000
Al    2.8637824638    0.0000000000    4.0000000000    0.0000000000    0.0000000000    0.0000000000
Al    0.0000000000    2.8637824638    4.0000000000    0.0000000000    0.0000000000    0.0000000000
Al    2.8637824638    2.8637824638    4.0000000000    0.0000000000    0.0000000000    0.0000000000
Al    1.4318912319    1.4318912319    6.0250000000    0.0000000000    0.0000000000    0.0000000000
Al    4.2956736957    1.4318912319    6.0250000000    0.0000000000    0.0000000000    0.0000000000
Al    1.4318912319    4.2956736957    6.0250000000    0.0000000000    0.0000000000    0.0000000000
Al    4.2956736957    4.2956736957    6.0250000000    0.0000000000    0.0000000000    0.0000000000
Al    0.0723226214   -0.0731270933    7.9984399474   -0.0039163274    0.0041243379    0.0074153130
Al    2.7914598424   -0.0731270933    7.9984399474    0.0039163274    0.0041243379    0.0074153130
Al    0.0723226214    2.9369095572    7.9984399474   -0.0039163274   -0.0041243379    0.0074153130
Al    2.7914598424    2.9369095572    7.9984399474    0.0039163274   -0.0041243379    0.0074153130
Au    4.2956736957    1.4318912319    9.4043801855    0.0000000000    0.0000000000   -0.0025113313
