
     Program PWSCF v.7.2 starts on 28Jan2024 at 14: 8:45 

     This program is part of the open-source Quantum ESPRESSO suite
     for quantum simulation of materials; please cite
         "P. Giannozzi et al., J. Phys.:Condens. Matter 21 395502 (2009);
         "P. Giannozzi et al., J. Phys.:Condens. Matter 29 465901 (2017);
         "P. Giannozzi et al., J. Chem. Phys. 152 154105 (2020);
          URL http://www.quantum-espresso.org", 
     in publications or presentations arising from this work. More details at
     http://www.quantum-espresso.org/quote

     Parallel version (MPI & OpenMP), running on       1 processor cores
     Number of MPI processes:                 1
     Threads/MPI process:                     1

     MPI processes distributed on     1 nodes
     233719 MiB available memory on the printing compute node when the environment starts
 
     Reading input from espresso.pwi
Warning: card &CELL ignored
Warning: card / ignored

     Current dimensions of program PWSCF are:
     Max number of different atomic species (ntypx) = 10
     Max number of k-points (npk) =  40000
     Max angular momentum in pseudopotentials (lmaxx) =  4

     IMPORTANT: XC functional enforced from input :
     Exchange-correlation= VDW-DF2-B86R
                           (   1   4  26   0   2   0   0)
     Any further DFT definition will be discarded
     Please, verify this is what you really want

     Message from routine setup:
     using ibrav=0 with symmetry is DISCOURAGED, use correct ibrav instead
 
     Subspace diagonalization in iterative solution of the eigenvalue problem:
     a serial algorithm will be used

 
     G-vector sticks info
     --------------------
     sticks:   dense  smooth     PW     G-vecs:    dense   smooth      PW
     Sum        1085     547    167               190927    67509   12135
 
     Using Slab Decomposition
 


     bravais-lattice index     =            0
     lattice parameter (alat)  =       5.6944  a.u.
     unit-cell volume          =    1076.1643 (a.u.)^3
     number of atoms/cell      =            4
     number of atomic types    =            2
     number of electrons       =         8.00
     number of Kohn-Sham states=            8
     kinetic-energy cutoff     =      60.0000  Ry
     charge density cutoff     =     480.0000  Ry
     scf convergence threshold =      1.0E-09
     mixing beta               =       0.7000
     number of iterations used =            8  plain     mixing
     Exchange-correlation= VDW-DF2-B86R
                           (   1   4  26   0   2   0   0)

     celldm(1)=   5.694435  celldm(2)=   0.000000  celldm(3)=   0.000000
     celldm(4)=   0.000000  celldm(5)=   0.000000  celldm(6)=   0.000000

     crystal axes: (cart. coord. in units of alat)
               a(1) = (   0.999994  -0.003588   0.000000 )  
               a(2) = (   0.503173   0.876310   0.000000 )  
               a(3) = (   0.000000   0.000000   6.637096 )  

     reciprocal axes: (cart. coord. in units 2 pi/alat)
               b(1) = (  0.997950 -0.573019  0.000000 )  
               b(2) = (  0.004086  1.138803  0.000000 )  
               b(3) = (  0.000000  0.000000  0.150668 )  


     PseudoPot. # 1 for B  read from file:
     /home/k0107/k010725/apps/qe/QE/pseudo/gbrv/pbe/b_pbe_v1.4.uspp.F.UPF
     MD5 check sum: cc6de2960df11db49a60e589f9ebb39b
     Pseudo is Ultrasoft + core correction, Zval =  3.0
     Generated by new atomic code, or converted to UPF format
     Using radial grid of  781 points,  4 beta functions with: 
                l(1) =   0
                l(2) =   0
                l(3) =   1
                l(4) =   1
     Q(r) pseudized with  8 coefficients,  rinner =    1.100   1.100   1.100


     PseudoPot. # 2 for H  read from file:
     /home/k0107/k010725/apps/qe/QE/pseudo/gbrv/pbe/h_pbe_v1.4.uspp.F.UPF
     MD5 check sum: 761ae9a214b05c3daf00ab9f6b793d6f
     Pseudo is Ultrasoft, Zval =  1.0
     Generated by new atomic code, or converted to UPF format
     Using radial grid of  615 points,  2 beta functions with: 
                l(1) =   0
                l(2) =   0
     Q(r) pseudized with  8 coefficients,  rinner =    0.700

     atomic species   valence    mass     pseudopotential
        B              3.00    10.81000     B ( 1.00)
        H              1.00     1.00800     H ( 1.00)

      2 Sym. Ops. (no inversion) found


                                    s                        frac. trans.

      isym =  1     identity                                     

 cryst.   s( 1) = (     1          0          0      )
                  (     0          1          0      )
                  (     0          0          1      )

 cart.    s( 1) = (  1.0000000 -0.0000000  0.0000000 )
                  (  0.0000000  1.0000000  0.0000000 )
                  (  0.0000000  0.0000000  1.0000000 )


      isym =  2     inv. 180 deg rotation - cart. axis [0,0,1]   

 cryst.   s( 2) = (     1          0          0      )
                  (     0          1          0      )
                  (     0          0         -1      )

 cart.    s( 2) = (  1.0000000 -0.0000000  0.0000000 )
                  (  0.0000000  1.0000000  0.0000000 )
                  (  0.0000000  0.0000000 -1.0000000 )


   Cartesian axes

     site n.     atom                  positions (alat units)
         1           B   tau(   1) = (   0.0000000   0.0000000   3.3185492  )
         2           B   tau(   2) = (   0.5009411   0.2697366   3.3185492  )
         3           H   tau(   3) = (   0.5020641   0.5730585   3.6395840  )
         4           H   tau(   4) = (   0.5020641   0.5730585   2.9975144  )

   Crystallographic axes

     site n.     atom                  positions (cryst. coord.)
         1           B   tau(   1) = (  0.0000000  0.0000000  0.5000002  )
         2           B   tau(   2) = (  0.3453503  0.3092238  0.5000002  )
         3           H   tau(   3) = (  0.1726619  0.6546522  0.5483699  )
         4           H   tau(   4) = (  0.1726619  0.6546522  0.4516304  )

     number of k points=   130  Gaussian smearing, width (Ry)=  0.0100
                       cart. coord. in units 2pi/alat
        k(    1) = (   0.0000000   0.0000000   0.0000000), wk =   0.0078125
        k(    2) = (   0.0002554   0.0711752   0.0000000), wk =   0.0156250
        k(    3) = (   0.0005108   0.1423504   0.0000000), wk =   0.0156250
        k(    4) = (   0.0007662   0.2135255   0.0000000), wk =   0.0156250
        k(    5) = (   0.0010216   0.2847007   0.0000000), wk =   0.0156250
        k(    6) = (   0.0012770   0.3558759   0.0000000), wk =   0.0156250
        k(    7) = (   0.0015324   0.4270511   0.0000000), wk =   0.0156250
        k(    8) = (   0.0017878   0.4982262   0.0000000), wk =   0.0156250
        k(    9) = (  -0.0020431  -0.5694014   0.0000000), wk =   0.0078125
        k(   10) = (   0.0623719  -0.0358137   0.0000000), wk =   0.0156250
        k(   11) = (   0.0626273   0.0353615   0.0000000), wk =   0.0156250
        k(   12) = (   0.0628827   0.1065367   0.0000000), wk =   0.0156250
        k(   13) = (   0.0631381   0.1777119   0.0000000), wk =   0.0156250
        k(   14) = (   0.0633935   0.2488870   0.0000000), wk =   0.0156250
        k(   15) = (   0.0636489   0.3200622   0.0000000), wk =   0.0156250
        k(   16) = (   0.0639043   0.3912374   0.0000000), wk =   0.0156250
        k(   17) = (   0.0641596   0.4624126   0.0000000), wk =   0.0156250
        k(   18) = (   0.0603288  -0.6052151   0.0000000), wk =   0.0156250
        k(   19) = (   0.0605841  -0.5340399   0.0000000), wk =   0.0156250
        k(   20) = (   0.0608395  -0.4628647   0.0000000), wk =   0.0156250
        k(   21) = (   0.0610949  -0.3916895   0.0000000), wk =   0.0156250
        k(   22) = (   0.0613503  -0.3205144   0.0000000), wk =   0.0156250
        k(   23) = (   0.0616057  -0.2493392   0.0000000), wk =   0.0156250
        k(   24) = (   0.0618611  -0.1781640   0.0000000), wk =   0.0156250
        k(   25) = (   0.0621165  -0.1069888   0.0000000), wk =   0.0156250
        k(   26) = (   0.1247438  -0.0716273   0.0000000), wk =   0.0156250
        k(   27) = (   0.1249992  -0.0004521   0.0000000), wk =   0.0156250
        k(   28) = (   0.1252546   0.0707230   0.0000000), wk =   0.0156250
        k(   29) = (   0.1255100   0.1418982   0.0000000), wk =   0.0156250
        k(   30) = (   0.1257654   0.2130734   0.0000000), wk =   0.0156250
        k(   31) = (   0.1260208   0.2842486   0.0000000), wk =   0.0156250
        k(   32) = (   0.1262761   0.3554237   0.0000000), wk =   0.0156250
        k(   33) = (   0.1265315   0.4265989   0.0000000), wk =   0.0156250
        k(   34) = (   0.1227006  -0.6410287   0.0000000), wk =   0.0156250
        k(   35) = (   0.1229560  -0.5698535   0.0000000), wk =   0.0156250
        k(   36) = (   0.1232114  -0.4986784   0.0000000), wk =   0.0156250
        k(   37) = (   0.1234668  -0.4275032   0.0000000), wk =   0.0156250
        k(   38) = (   0.1237222  -0.3563280   0.0000000), wk =   0.0156250
        k(   39) = (   0.1239776  -0.2851528   0.0000000), wk =   0.0156250
        k(   40) = (   0.1242330  -0.2139777   0.0000000), wk =   0.0156250
        k(   41) = (   0.1244884  -0.1428025   0.0000000), wk =   0.0156250
        k(   42) = (   0.1871157  -0.1074410   0.0000000), wk =   0.0156250
        k(   43) = (   0.1873711  -0.0362658   0.0000000), wk =   0.0156250
        k(   44) = (   0.1876265   0.0349094   0.0000000), wk =   0.0156250
        k(   45) = (   0.1878819   0.1060846   0.0000000), wk =   0.0156250
        k(   46) = (   0.1881373   0.1772597   0.0000000), wk =   0.0156250
        k(   47) = (   0.1883926   0.2484349   0.0000000), wk =   0.0156250
        k(   48) = (   0.1886480   0.3196101   0.0000000), wk =   0.0156250
        k(   49) = (   0.1889034   0.3907853   0.0000000), wk =   0.0156250
        k(   50) = (   0.1850725  -0.6768424   0.0000000), wk =   0.0156250
        k(   51) = (   0.1853279  -0.6056672   0.0000000), wk =   0.0156250
        k(   52) = (   0.1855833  -0.5344920   0.0000000), wk =   0.0156250
        k(   53) = (   0.1858387  -0.4633169   0.0000000), wk =   0.0156250
        k(   54) = (   0.1860941  -0.3921417   0.0000000), wk =   0.0156250
        k(   55) = (   0.1863495  -0.3209665   0.0000000), wk =   0.0156250
        k(   56) = (   0.1866049  -0.2497913   0.0000000), wk =   0.0156250
        k(   57) = (   0.1868603  -0.1786161   0.0000000), wk =   0.0156250
        k(   58) = (   0.2494876  -0.1432546   0.0000000), wk =   0.0156250
        k(   59) = (   0.2497430  -0.0720795   0.0000000), wk =   0.0156250
        k(   60) = (   0.2499984  -0.0009043   0.0000000), wk =   0.0156250
        k(   61) = (   0.2502538   0.0702709   0.0000000), wk =   0.0156250
        k(   62) = (   0.2505092   0.1414461   0.0000000), wk =   0.0156250
        k(   63) = (   0.2507645   0.2126213   0.0000000), wk =   0.0156250
        k(   64) = (   0.2510199   0.2837964   0.0000000), wk =   0.0156250
        k(   65) = (   0.2512753   0.3549716   0.0000000), wk =   0.0156250
        k(   66) = (   0.2474444  -0.7126560   0.0000000), wk =   0.0156250
        k(   67) = (   0.2476998  -0.6414809   0.0000000), wk =   0.0156250
        k(   68) = (   0.2479552  -0.5703057   0.0000000), wk =   0.0156250
        k(   69) = (   0.2482106  -0.4991305   0.0000000), wk =   0.0156250
        k(   70) = (   0.2484660  -0.4279553   0.0000000), wk =   0.0156250
        k(   71) = (   0.2487214  -0.3567802   0.0000000), wk =   0.0156250
        k(   72) = (   0.2489768  -0.2856050   0.0000000), wk =   0.0156250
        k(   73) = (   0.2492322  -0.2144298   0.0000000), wk =   0.0156250
        k(   74) = (   0.3118595  -0.1790683   0.0000000), wk =   0.0156250
        k(   75) = (   0.3121149  -0.1078931   0.0000000), wk =   0.0156250
        k(   76) = (   0.3123703  -0.0367179   0.0000000), wk =   0.0156250
        k(   77) = (   0.3126257   0.0344572   0.0000000), wk =   0.0156250
        k(   78) = (   0.3128810   0.1056324   0.0000000), wk =   0.0156250
        k(   79) = (   0.3131364   0.1768076   0.0000000), wk =   0.0156250
        k(   80) = (   0.3133918   0.2479828   0.0000000), wk =   0.0156250
        k(   81) = (   0.3136472   0.3191579   0.0000000), wk =   0.0156250
        k(   82) = (   0.3098163  -0.7484697   0.0000000), wk =   0.0156250
        k(   83) = (   0.3100717  -0.6772945   0.0000000), wk =   0.0156250
        k(   84) = (   0.3103271  -0.6061193   0.0000000), wk =   0.0156250
        k(   85) = (   0.3105825  -0.5349442   0.0000000), wk =   0.0156250
        k(   86) = (   0.3108379  -0.4637690   0.0000000), wk =   0.0156250
        k(   87) = (   0.3110933  -0.3925938   0.0000000), wk =   0.0156250
        k(   88) = (   0.3113487  -0.3214186   0.0000000), wk =   0.0156250
        k(   89) = (   0.3116041  -0.2502435   0.0000000), wk =   0.0156250
        k(   90) = (   0.3742314  -0.2148819   0.0000000), wk =   0.0156250
        k(   91) = (   0.3744868  -0.1437068   0.0000000), wk =   0.0156250
        k(   92) = (   0.3747422  -0.0725316   0.0000000), wk =   0.0156250
        k(   93) = (   0.3749975  -0.0013564   0.0000000), wk =   0.0156250
        k(   94) = (   0.3752529   0.0698188   0.0000000), wk =   0.0156250
        k(   95) = (   0.3755083   0.1409939   0.0000000), wk =   0.0156250
        k(   96) = (   0.3757637   0.2121691   0.0000000), wk =   0.0156250
        k(   97) = (   0.3760191   0.2833443   0.0000000), wk =   0.0156250
        k(   98) = (   0.3721882  -0.7842834   0.0000000), wk =   0.0156250
        k(   99) = (   0.3724436  -0.7131082   0.0000000), wk =   0.0156250
        k(  100) = (   0.3726990  -0.6419330   0.0000000), wk =   0.0156250
        k(  101) = (   0.3729544  -0.5707578   0.0000000), wk =   0.0156250
        k(  102) = (   0.3732098  -0.4995826   0.0000000), wk =   0.0156250
        k(  103) = (   0.3734652  -0.4284075   0.0000000), wk =   0.0156250
        k(  104) = (   0.3737206  -0.3572323   0.0000000), wk =   0.0156250
        k(  105) = (   0.3739760  -0.2860571   0.0000000), wk =   0.0156250
        k(  106) = (   0.4366033  -0.2506956   0.0000000), wk =   0.0156250
        k(  107) = (   0.4368587  -0.1795204   0.0000000), wk =   0.0156250
        k(  108) = (   0.4371140  -0.1083452   0.0000000), wk =   0.0156250
        k(  109) = (   0.4373694  -0.0371701   0.0000000), wk =   0.0156250
        k(  110) = (   0.4376248   0.0340051   0.0000000), wk =   0.0156250
        k(  111) = (   0.4378802   0.1051803   0.0000000), wk =   0.0156250
        k(  112) = (   0.4381356   0.1763555   0.0000000), wk =   0.0156250
        k(  113) = (   0.4383910   0.2475306   0.0000000), wk =   0.0156250
        k(  114) = (   0.4345601  -0.8200970   0.0000000), wk =   0.0156250
        k(  115) = (   0.4348155  -0.7489218   0.0000000), wk =   0.0156250
        k(  116) = (   0.4350709  -0.6777467   0.0000000), wk =   0.0156250
        k(  117) = (   0.4353263  -0.6065715   0.0000000), wk =   0.0156250
        k(  118) = (   0.4355817  -0.5353963   0.0000000), wk =   0.0156250
        k(  119) = (   0.4358371  -0.4642211   0.0000000), wk =   0.0156250
        k(  120) = (   0.4360925  -0.3930460   0.0000000), wk =   0.0156250
        k(  121) = (   0.4363479  -0.3218708   0.0000000), wk =   0.0156250
        k(  122) = (  -0.4989752   0.2865093   0.0000000), wk =   0.0078125
        k(  123) = (  -0.4987198   0.3576844   0.0000000), wk =   0.0156250
        k(  124) = (  -0.4984644   0.4288596   0.0000000), wk =   0.0156250
        k(  125) = (  -0.4982090   0.5000348   0.0000000), wk =   0.0156250
        k(  126) = (  -0.4979536   0.5712100   0.0000000), wk =   0.0156250
        k(  127) = (  -0.4976982   0.6423851   0.0000000), wk =   0.0156250
        k(  128) = (  -0.4974428   0.7135603   0.0000000), wk =   0.0156250
        k(  129) = (  -0.4971874   0.7847355   0.0000000), wk =   0.0156250
        k(  130) = (  -0.5010183  -0.2828922   0.0000000), wk =   0.0078125

                       cryst. coord.
        k(    1) = (   0.0000000   0.0000000   0.0000000), wk =   0.0078125
        k(    2) = (   0.0000000   0.0625000   0.0000000), wk =   0.0156250
        k(    3) = (   0.0000000   0.1250000   0.0000000), wk =   0.0156250
        k(    4) = (   0.0000000   0.1875000   0.0000000), wk =   0.0156250
        k(    5) = (   0.0000000   0.2500000   0.0000000), wk =   0.0156250
        k(    6) = (   0.0000000   0.3125000   0.0000000), wk =   0.0156250
        k(    7) = (   0.0000000   0.3750000   0.0000000), wk =   0.0156250
        k(    8) = (   0.0000000   0.4375000   0.0000000), wk =   0.0156250
        k(    9) = (   0.0000000  -0.5000000   0.0000000), wk =   0.0078125
        k(   10) = (   0.0625000   0.0000000   0.0000000), wk =   0.0156250
        k(   11) = (   0.0625000   0.0625000   0.0000000), wk =   0.0156250
        k(   12) = (   0.0625000   0.1250000   0.0000000), wk =   0.0156250
        k(   13) = (   0.0625000   0.1875000   0.0000000), wk =   0.0156250
        k(   14) = (   0.0625000   0.2500000   0.0000000), wk =   0.0156250
        k(   15) = (   0.0625000   0.3125000   0.0000000), wk =   0.0156250
        k(   16) = (   0.0625000   0.3750000   0.0000000), wk =   0.0156250
        k(   17) = (   0.0625000   0.4375000   0.0000000), wk =   0.0156250
        k(   18) = (   0.0625000  -0.5000000   0.0000000), wk =   0.0156250
        k(   19) = (   0.0625000  -0.4375000   0.0000000), wk =   0.0156250
        k(   20) = (   0.0625000  -0.3750000   0.0000000), wk =   0.0156250
        k(   21) = (   0.0625000  -0.3125000   0.0000000), wk =   0.0156250
        k(   22) = (   0.0625000  -0.2500000   0.0000000), wk =   0.0156250
        k(   23) = (   0.0625000  -0.1875000   0.0000000), wk =   0.0156250
        k(   24) = (   0.0625000  -0.1250000   0.0000000), wk =   0.0156250
        k(   25) = (   0.0625000  -0.0625000   0.0000000), wk =   0.0156250
        k(   26) = (   0.1250000   0.0000000   0.0000000), wk =   0.0156250
        k(   27) = (   0.1250000   0.0625000   0.0000000), wk =   0.0156250
        k(   28) = (   0.1250000   0.1250000   0.0000000), wk =   0.0156250
        k(   29) = (   0.1250000   0.1875000   0.0000000), wk =   0.0156250
        k(   30) = (   0.1250000   0.2500000   0.0000000), wk =   0.0156250
        k(   31) = (   0.1250000   0.3125000   0.0000000), wk =   0.0156250
        k(   32) = (   0.1250000   0.3750000   0.0000000), wk =   0.0156250
        k(   33) = (   0.1250000   0.4375000   0.0000000), wk =   0.0156250
        k(   34) = (   0.1250000  -0.5000000   0.0000000), wk =   0.0156250
        k(   35) = (   0.1250000  -0.4375000   0.0000000), wk =   0.0156250
        k(   36) = (   0.1250000  -0.3750000   0.0000000), wk =   0.0156250
        k(   37) = (   0.1250000  -0.3125000   0.0000000), wk =   0.0156250
        k(   38) = (   0.1250000  -0.2500000   0.0000000), wk =   0.0156250
        k(   39) = (   0.1250000  -0.1875000   0.0000000), wk =   0.0156250
        k(   40) = (   0.1250000  -0.1250000   0.0000000), wk =   0.0156250
        k(   41) = (   0.1250000  -0.0625000   0.0000000), wk =   0.0156250
        k(   42) = (   0.1875000  -0.0000000   0.0000000), wk =   0.0156250
        k(   43) = (   0.1875000   0.0625000   0.0000000), wk =   0.0156250
        k(   44) = (   0.1875000   0.1250000   0.0000000), wk =   0.0156250
        k(   45) = (   0.1875000   0.1875000   0.0000000), wk =   0.0156250
        k(   46) = (   0.1875000   0.2500000   0.0000000), wk =   0.0156250
        k(   47) = (   0.1875000   0.3125000   0.0000000), wk =   0.0156250
        k(   48) = (   0.1875000   0.3750000   0.0000000), wk =   0.0156250
        k(   49) = (   0.1875000   0.4375000   0.0000000), wk =   0.0156250
        k(   50) = (   0.1875000  -0.5000000   0.0000000), wk =   0.0156250
        k(   51) = (   0.1875000  -0.4375000   0.0000000), wk =   0.0156250
        k(   52) = (   0.1875000  -0.3750000   0.0000000), wk =   0.0156250
        k(   53) = (   0.1875000  -0.3125000   0.0000000), wk =   0.0156250
        k(   54) = (   0.1875000  -0.2500000   0.0000000), wk =   0.0156250
        k(   55) = (   0.1875000  -0.1875000   0.0000000), wk =   0.0156250
        k(   56) = (   0.1875000  -0.1250000   0.0000000), wk =   0.0156250
        k(   57) = (   0.1875000  -0.0625000   0.0000000), wk =   0.0156250
        k(   58) = (   0.2500000   0.0000000   0.0000000), wk =   0.0156250
        k(   59) = (   0.2500000   0.0625000   0.0000000), wk =   0.0156250
        k(   60) = (   0.2500000   0.1250000   0.0000000), wk =   0.0156250
        k(   61) = (   0.2500000   0.1875000   0.0000000), wk =   0.0156250
        k(   62) = (   0.2500000   0.2500000   0.0000000), wk =   0.0156250
        k(   63) = (   0.2500000   0.3125000   0.0000000), wk =   0.0156250
        k(   64) = (   0.2500000   0.3750000   0.0000000), wk =   0.0156250
        k(   65) = (   0.2500000   0.4375000   0.0000000), wk =   0.0156250
        k(   66) = (   0.2500000  -0.5000000   0.0000000), wk =   0.0156250
        k(   67) = (   0.2500000  -0.4375000   0.0000000), wk =   0.0156250
        k(   68) = (   0.2500000  -0.3750000   0.0000000), wk =   0.0156250
        k(   69) = (   0.2500000  -0.3125000   0.0000000), wk =   0.0156250
        k(   70) = (   0.2500000  -0.2500000   0.0000000), wk =   0.0156250
        k(   71) = (   0.2500000  -0.1875000   0.0000000), wk =   0.0156250
        k(   72) = (   0.2500000  -0.1250000   0.0000000), wk =   0.0156250
        k(   73) = (   0.2500000  -0.0625000   0.0000000), wk =   0.0156250
        k(   74) = (   0.3125000  -0.0000000   0.0000000), wk =   0.0156250
        k(   75) = (   0.3125000   0.0625000   0.0000000), wk =   0.0156250
        k(   76) = (   0.3125000   0.1250000   0.0000000), wk =   0.0156250
        k(   77) = (   0.3125000   0.1875000   0.0000000), wk =   0.0156250
        k(   78) = (   0.3125000   0.2500000   0.0000000), wk =   0.0156250
        k(   79) = (   0.3125000   0.3125000   0.0000000), wk =   0.0156250
        k(   80) = (   0.3125000   0.3750000   0.0000000), wk =   0.0156250
        k(   81) = (   0.3125000   0.4375000   0.0000000), wk =   0.0156250
        k(   82) = (   0.3125000  -0.5000000   0.0000000), wk =   0.0156250
        k(   83) = (   0.3125000  -0.4375000   0.0000000), wk =   0.0156250
        k(   84) = (   0.3125000  -0.3750000   0.0000000), wk =   0.0156250
        k(   85) = (   0.3125000  -0.3125000   0.0000000), wk =   0.0156250
        k(   86) = (   0.3125000  -0.2500000   0.0000000), wk =   0.0156250
        k(   87) = (   0.3125000  -0.1875000   0.0000000), wk =   0.0156250
        k(   88) = (   0.3125000  -0.1250000   0.0000000), wk =   0.0156250
        k(   89) = (   0.3125000  -0.0625000   0.0000000), wk =   0.0156250
        k(   90) = (   0.3750000  -0.0000000   0.0000000), wk =   0.0156250
        k(   91) = (   0.3750000   0.0625000   0.0000000), wk =   0.0156250
        k(   92) = (   0.3750000   0.1250000   0.0000000), wk =   0.0156250
        k(   93) = (   0.3750000   0.1875000   0.0000000), wk =   0.0156250
        k(   94) = (   0.3750000   0.2500000   0.0000000), wk =   0.0156250
        k(   95) = (   0.3750000   0.3125000   0.0000000), wk =   0.0156250
        k(   96) = (   0.3750000   0.3750000   0.0000000), wk =   0.0156250
        k(   97) = (   0.3750000   0.4375000   0.0000000), wk =   0.0156250
        k(   98) = (   0.3750000  -0.5000000   0.0000000), wk =   0.0156250
        k(   99) = (   0.3750000  -0.4375000   0.0000000), wk =   0.0156250
        k(  100) = (   0.3750000  -0.3750000   0.0000000), wk =   0.0156250
        k(  101) = (   0.3750000  -0.3125000   0.0000000), wk =   0.0156250
        k(  102) = (   0.3750000  -0.2500000   0.0000000), wk =   0.0156250
        k(  103) = (   0.3750000  -0.1875000   0.0000000), wk =   0.0156250
        k(  104) = (   0.3750000  -0.1250000   0.0000000), wk =   0.0156250
        k(  105) = (   0.3750000  -0.0625000   0.0000000), wk =   0.0156250
        k(  106) = (   0.4375000  -0.0000000   0.0000000), wk =   0.0156250
        k(  107) = (   0.4375000   0.0625000   0.0000000), wk =   0.0156250
        k(  108) = (   0.4375000   0.1250000   0.0000000), wk =   0.0156250
        k(  109) = (   0.4375000   0.1875000   0.0000000), wk =   0.0156250
        k(  110) = (   0.4375000   0.2500000   0.0000000), wk =   0.0156250
        k(  111) = (   0.4375000   0.3125000   0.0000000), wk =   0.0156250
        k(  112) = (   0.4375000   0.3750000   0.0000000), wk =   0.0156250
        k(  113) = (   0.4375000   0.4375000   0.0000000), wk =   0.0156250
        k(  114) = (   0.4375000  -0.5000000   0.0000000), wk =   0.0156250
        k(  115) = (   0.4375000  -0.4375000   0.0000000), wk =   0.0156250
        k(  116) = (   0.4375000  -0.3750000   0.0000000), wk =   0.0156250
        k(  117) = (   0.4375000  -0.3125000   0.0000000), wk =   0.0156250
        k(  118) = (   0.4375000  -0.2500000   0.0000000), wk =   0.0156250
        k(  119) = (   0.4375000  -0.1875000   0.0000000), wk =   0.0156250
        k(  120) = (   0.4375000  -0.1250000   0.0000000), wk =   0.0156250
        k(  121) = (   0.4375000  -0.0625000   0.0000000), wk =   0.0156250
        k(  122) = (  -0.5000000   0.0000000   0.0000000), wk =   0.0078125
        k(  123) = (  -0.5000000   0.0625000   0.0000000), wk =   0.0156250
        k(  124) = (  -0.5000000   0.1250000   0.0000000), wk =   0.0156250
        k(  125) = (  -0.5000000   0.1875000   0.0000000), wk =   0.0156250
        k(  126) = (  -0.5000000   0.2500000   0.0000000), wk =   0.0156250
        k(  127) = (  -0.5000000   0.3125000   0.0000000), wk =   0.0156250
        k(  128) = (  -0.5000000   0.3750000   0.0000000), wk =   0.0156250
        k(  129) = (  -0.5000000   0.4375000   0.0000000), wk =   0.0156250
        k(  130) = (  -0.5000000  -0.5000000   0.0000000), wk =   0.0078125

     Dense  grid:   190927 G-vectors     FFT dimensions: (  40,  45, 270)

     Smooth grid:    67509 G-vectors     FFT dimensions: (  30,  30, 192)

     Dynamical RAM for                 wfc:       1.03 MB

     Dynamical RAM for     wfc (w. buffer):     135.06 MB

     Dynamical RAM for           str. fact:       5.83 MB

     Dynamical RAM for           local pot:       0.00 MB

     Dynamical RAM for          nlocal pot:       2.58 MB

     Dynamical RAM for                qrad:       1.00 MB

     Dynamical RAM for          rho,v,vnew:      19.86 MB

     Dynamical RAM for               rhoin:       6.62 MB

     Dynamical RAM for            rho*nmix:      46.61 MB

     Dynamical RAM for           G-vectors:      11.44 MB

     Dynamical RAM for          h,s,v(r/c):       0.01 MB

     Dynamical RAM for          <psi|beta>:       0.00 MB

     Dynamical RAM for                 psi:       2.06 MB

     Dynamical RAM for                hpsi:       2.06 MB

     Dynamical RAM for                spsi:       2.06 MB

     Dynamical RAM for      wfcinit/wfcrot:       2.58 MB

     Dynamical RAM for           addusdens:     131.10 MB

     Dynamical RAM for          addusforce:     138.38 MB

     Dynamical RAM for         addusstress:     145.67 MB

     Estimated static dynamical RAM per process >     209.67 MB

     Estimated max dynamical RAM per process >     401.95 MB

     Initial potential from superposition of free atoms

     starting charge       7.9994, renormalised to       8.0000

     negative rho (up, down):  5.676E-05 0.000E+00


     %%%%%%%%%%%%%%%%%%%%%%%%%%%%%%%%%%%%%%%%%%%%%%%%%%%%%%%%%%%%%%%%%%%%%%%%
     %                                                                      %
     % You are using vdW-DF, which was implemented by the Thonhauser group. %
     % Please cite the following two papers that made this development      %
     % possible and the two reviews that describe the various versions:     %
     %                                                                      %
     %   T. Thonhauser et al., PRL 115, 136402 (2015).                      %
     %   T. Thonhauser et al., PRB 76, 125112 (2007).                       %
     %   K. Berland et al., Rep. Prog. Phys. 78, 066501 (2015).             %
     %   D.C. Langreth et al., J. Phys.: Condens. Matter 21, 084203 (2009). %
     %                                                                      %
     % If you are calculating stress with vdW-DF, please also cite:         %
     %                                                                      %
     %   R. Sabatini et al., J. Phys.: Condens. Matter 24, 424209 (2012).   %
     %                                                                      %
     %%%%%%%%%%%%%%%%%%%%%%%%%%%%%%%%%%%%%%%%%%%%%%%%%%%%%%%%%%%%%%%%%%%%%%%%

     %%%%%%%%%%%%%%%%%%%%%%%%%%%%%%%%%%%%%%%%%%%%%%%%%%%%%%%%%%%%%%%%%%%%%%%%
     %                                                                      %
     %  vdW-DF NEWS:                                                        %
     %                                                                      %
     %  * vdW-DF3 is now available. DOI: 10.1021/acs.jctc.0c00471           %
     %    use with input_dft = 'vdW-DF3-opt1' or 'vdW-DF3-opt2'             %
     %                                                                      %
     %  * Unscreened and range-separated hybrid vdW-DF-cx functionals       %
     %    DOI: 10.1063/1.4986522 and 10.1088/1361-648X/ac2ad2               %
     %    use with input_dft = 'vdW-DF-cx0'    and 'vdW-DF-ahcx'            %
     %  * Unscreened and range-separated hybrid vdW-DF2-b86r functionals    %
     %    DOI: 10.1063/1.4986522 and DOI: 10.1103/PhysRevX.12.041003        %
     %    use with input_dft = 'vdW-DF2-br0' and 'vdW-DF2-ahbr'             %
     %                                                                      %
     %%%%%%%%%%%%%%%%%%%%%%%%%%%%%%%%%%%%%%%%%%%%%%%%%%%%%%%%%%%%%%%%%%%%%%%%


     Carrying out vdW-DF run using the following parameters:
     Nqs    =  20  Npoints =  1024  r_max =  100.000
     q_mesh =  0.00001000  0.04494208  0.09755937  0.15916263
               0.23128650  0.31572767  0.41458969  0.53033537
               0.66584808  0.82450364  1.01025438  1.22772762
               1.48234092  1.78043706  2.12944203  2.53805004
               3.01644009  3.57652955  4.23227104  5.00000000


     -----------------------------------------------
     Non-local corr. energy    =       0.08388637 Ry
     -----------------------------------------------

     Starting wfcs are   10 randomized atomic wfcs

     total cpu time spent up to now is       52.5 secs

     Self-consistent Calculation

     iteration #  1     ecut=    60.00 Ry     beta= 0.70
     Davidson diagonalization with overlap

---- Real-time Memory Report at c_bands before calling an iterative solver
           530 MiB given to the printing process from OS
             0 MiB allocation reported by mallinfo(arena+hblkhd)
        233434 MiB available memory on the node where the printing process lives
------------------
     ethr =  1.00E-02,  avg # of iterations =  3.8

     negative rho (up, down):  5.090E-05 0.000E+00


     -----------------------------------------------
     Non-local corr. energy    =       0.09810394 Ry
     -----------------------------------------------


     total cpu time spent up to now is       71.7 secs

     total energy              =     -15.04601430 Ry
     estimated scf accuracy    <       0.32779341 Ry

     iteration #  2     ecut=    60.00 Ry     beta= 0.70
     Davidson diagonalization with overlap

---- Real-time Memory Report at c_bands before calling an iterative solver
           704 MiB given to the printing process from OS
             0 MiB allocation reported by mallinfo(arena+hblkhd)
        233366 MiB available memory on the node where the printing process lives
------------------
     ethr =  4.10E-03,  avg # of iterations =  4.1

     negative rho (up, down):  6.977E-05 0.000E+00


     -----------------------------------------------
     Non-local corr. energy    =       0.09844920 Ry
     -----------------------------------------------


     total cpu time spent up to now is       89.1 secs

     total energy              =     -15.10046657 Ry
     estimated scf accuracy    <       0.01915281 Ry

     iteration #  3     ecut=    60.00 Ry     beta= 0.70
     Davidson diagonalization with overlap

---- Real-time Memory Report at c_bands before calling an iterative solver
           714 MiB given to the printing process from OS
             0 MiB allocation reported by mallinfo(arena+hblkhd)
        233357 MiB available memory on the node where the printing process lives
------------------
     ethr =  2.39E-04,  avg # of iterations =  6.3

     negative rho (up, down):  8.215E-05 0.000E+00


     -----------------------------------------------
     Non-local corr. energy    =       0.09944720 Ry
     -----------------------------------------------


     total cpu time spent up to now is      108.4 secs

     total energy              =     -15.10395779 Ry
     estimated scf accuracy    <       0.00074529 Ry

     iteration #  4     ecut=    60.00 Ry     beta= 0.70
     Davidson diagonalization with overlap

---- Real-time Memory Report at c_bands before calling an iterative solver
           719 MiB given to the printing process from OS
             0 MiB allocation reported by mallinfo(arena+hblkhd)
        233355 MiB available memory on the node where the printing process lives
------------------
     c_bands:  1 eigenvalues not converged
     c_bands:  1 eigenvalues not converged
     c_bands:  1 eigenvalues not converged
     ethr =  9.32E-06,  avg # of iterations =  7.9
