
     Program PWSCF v.7.2 starts on  9May2024 at 12:49:18 

     This program is part of the open-source Quantum ESPRESSO suite
     for quantum simulation of materials; please cite
         "P. Giannozzi et al., J. Phys.:Condens. Matter 21 395502 (2009);
         "P. Giannozzi et al., J. Phys.:Condens. Matter 29 465901 (2017);
         "P. Giannozzi et al., J. Chem. Phys. 152 154105 (2020);
          URL http://www.quantum-espresso.org", 
     in publications or presentations arising from this work. More details at
     http://www.quantum-espresso.org/quote

     Parallel version (MPI & OpenMP), running on     256 processor cores
     Number of MPI processes:               256
     Threads/MPI process:                     1

     MPI processes distributed on     2 nodes
     223589 MiB available memory on the printing compute node when the environment starts
 
     Reading input from espresso_nscf.pwi
Warning: card &IONS ignored
Warning: card / ignored
Warning: card &CELL ignored
Warning: card / ignored

     Current dimensions of program PWSCF are:
     Max number of different atomic species (ntypx) = 10
     Max number of k-points (npk) =  40000
     Max angular momentum in pseudopotentials (lmaxx) =  4

     Atomic positions and unit cell read from directory:
     TMPDIR/pwscf.save/
     Atomic positions from file used, from input discarded
 

     IMPORTANT: XC functional enforced from input :
     Exchange-correlation= VDW-DF2-B86R
                           (   1   4  26   0   2   0   0)
     Any further DFT definition will be discarded
     Please, verify this is what you really want

     Found identity + (  0.0000  0.2500  0.0000) symmetry
     This is a supercell, fractional translations are disabled
     Message from routine setup:
     using ibrav=0 with symmetry is DISCOURAGED, use correct ibrav instead
 
     K-points division:     npool     =       2
     R & G space division:  proc/nbgrp/npool/nimage =     128
     Subspace diagonalization in iterative solution of the eigenvalue problem:
     a serial algorithm will be used

 
     Parallelization info
     --------------------
     sticks:   dense  smooth     PW     G-vecs:    dense   smooth      PW
     Min         136      67     18                22688     8011    1102
     Max         137      68     19                22698     8028    1109
     Sum       17409    8703   2323              2904951  1026963  141509
 
     Using Slab Decomposition
 


     bravais-lattice index     =            0
     lattice parameter (alat)  =      22.7777  a.u.
     unit-cell volume          =   16357.7161 (a.u.)^3
     number of atoms/cell      =           64
     number of atomic types    =            2
     number of electrons       =       128.00
     number of Kohn-Sham states=           77
     kinetic-energy cutoff     =      60.0000  Ry
     charge density cutoff     =     480.0000  Ry
     Exchange-correlation= VDW-DF2-B86R
                           (   1   4  26   0   2   0   0)

     celldm(1)=  22.777748  celldm(2)=   0.000000  celldm(3)=   0.000000
     celldm(4)=   0.000000  celldm(5)=   0.000000  celldm(6)=   0.000000

     crystal axes: (cart. coord. in units of alat)
               a(1) = (   0.999994  -0.003588   0.000000 )  
               a(2) = (   0.503173   0.876310   0.000000 )  
               a(3) = (   0.000000   0.000000   1.576310 )  

     reciprocal axes: (cart. coord. in units 2 pi/alat)
               b(1) = (  0.997950 -0.573018  0.000000 )  
               b(2) = (  0.004086  1.138803  0.000000 )  
               b(3) = (  0.000000  0.000000  0.634393 )  


     PseudoPot. # 1 for B  read from file:
     /home/k0107/k010725/apps/qe/QE/pseudo/gbrv/pbe/b_pbe_v1.4.uspp.F.UPF
     MD5 check sum: cc6de2960df11db49a60e589f9ebb39b
     Pseudo is Ultrasoft + core correction, Zval =  3.0
     Generated by new atomic code, or converted to UPF format
     Using radial grid of  781 points,  4 beta functions with: 
                l(1) =   0
                l(2) =   0
                l(3) =   1
                l(4) =   1
     Q(r) pseudized with  8 coefficients,  rinner =    1.100   1.100   1.100


     PseudoPot. # 2 for H  read from file:
     /home/k0107/k010725/apps/qe/QE/pseudo/gbrv/pbe/h_pbe_v1.4.uspp.F.UPF
     MD5 check sum: 761ae9a214b05c3daf00ab9f6b793d6f
     Pseudo is Ultrasoft, Zval =  1.0
     Generated by new atomic code, or converted to UPF format
     Using radial grid of  615 points,  2 beta functions with: 
                l(1) =   0
                l(2) =   0
     Q(r) pseudized with  8 coefficients,  rinner =    0.700

     atomic species   valence    mass     pseudopotential
        B              3.00    10.81000     B ( 1.00)
        H              1.00     1.00800     H ( 1.00)

      2 Sym. Ops. (no inversion) found



   Cartesian axes

     site n.     atom                  positions (alat units)
         1           B   tau(   1) = (   0.0000000   0.0000000   0.7881551  )
         2           B   tau(   2) = (   0.1252352   0.0674342   0.7881551  )
         3           B   tau(   3) = (   0.1257931   0.2190773   0.7881551  )
         4           B   tau(   4) = (   0.2510284   0.2865115   0.7881551  )
         5           B   tau(   5) = (   0.2515864   0.4381546   0.7881551  )
         6           B   tau(   6) = (   0.3768216   0.5055888   0.7881551  )
         7           B   tau(   7) = (   0.3773795   0.6572319   0.7881551  )
         8           B   tau(   8) = (   0.5026148   0.7246661   0.7881551  )
         9           B   tau(   9) = (   0.2499983  -0.0008971   0.7881551  )
        10           B   tau(  10) = (   0.3752335   0.0665371   0.7881551  )
        11           B   tau(  11) = (   0.3757914   0.2181803   0.7881551  )
        12           B   tau(  12) = (   0.5010267   0.2856144   0.7881551  )
        13           B   tau(  13) = (   0.5015847   0.4372576   0.7881551  )
        14           B   tau(  14) = (   0.6268199   0.5046917   0.7881551  )
        15           B   tau(  15) = (   0.6273778   0.6563349   0.7881551  )
        16           B   tau(  16) = (   0.7526131   0.7237690   0.7881551  )
        17           B   tau(  17) = (   0.4999966  -0.0017941   0.7881551  )
        18           B   tau(  18) = (   0.6252318   0.0656400   0.7881551  )
        19           B   tau(  19) = (   0.6257897   0.2172832   0.7881551  )
        20           B   tau(  20) = (   0.7510250   0.2847174   0.7881551  )
        21           B   tau(  21) = (   0.7515830   0.4363605   0.7881551  )
        22           B   tau(  22) = (   0.8768182   0.5037947   0.7881551  )
        23           B   tau(  23) = (   0.8773761   0.6554378   0.7881551  )
        24           B   tau(  24) = (   1.0026114   0.7228720   0.7881551  )
        25           B   tau(  25) = (   0.7499949  -0.0026912   0.7881551  )
        26           B   tau(  26) = (   0.8752301   0.0647430   0.7881551  )
        27           B   tau(  27) = (   0.8757880   0.2163862   0.7881551  )
        28           B   tau(  28) = (   1.0010233   0.2838203   0.7881551  )
        29           B   tau(  29) = (   1.0015813   0.4354635   0.7881551  )
        30           B   tau(  30) = (   1.1268165   0.5028976   0.7881551  )
        31           B   tau(  31) = (   1.1273744   0.6545408   0.7881551  )
        32           B   tau(  32) = (   1.2526097   0.7219749   0.7881551  )
        33           H   tau(  33) = (   0.1255159   0.1432645   0.8684139  )
        34           H   tau(  34) = (   0.1255159   0.1432645   0.7078964  )
        35           H   tau(  35) = (   0.2513092   0.3623418   0.8684139  )
        36           H   tau(  36) = (   0.2513092   0.3623418   0.7078964  )
        37           H   tau(  37) = (   0.3771023   0.5814191   0.8684139  )
        38           H   tau(  38) = (   0.3771023   0.5814191   0.7078964  )
        39           H   tau(  39) = (   0.5028956   0.8004966   0.8684139  )
        40           H   tau(  40) = (   0.5028956   0.8004966   0.7078964  )
        41           H   tau(  41) = (   0.3755142   0.1423675   0.8684139  )
        42           H   tau(  42) = (   0.3755142   0.1423675   0.7078964  )
        43           H   tau(  43) = (   0.5013075   0.3614448   0.8684139  )
        44           H   tau(  44) = (   0.5013075   0.3614448   0.7078964  )
        45           H   tau(  45) = (   0.6271006   0.5805221   0.8684139  )
        46           H   tau(  46) = (   0.6271006   0.5805221   0.7078964  )
        47           H   tau(  47) = (   0.7528939   0.7995995   0.8684139  )
        48           H   tau(  48) = (   0.7528939   0.7995995   0.7078964  )
        49           H   tau(  49) = (   0.6255125   0.1414704   0.8684139  )
        50           H   tau(  50) = (   0.6255125   0.1414704   0.7078964  )
        51           H   tau(  51) = (   0.7513058   0.3605477   0.8684139  )
        52           H   tau(  52) = (   0.7513058   0.3605477   0.7078964  )
        53           H   tau(  53) = (   0.8770989   0.5796250   0.8684139  )
        54           H   tau(  54) = (   0.8770989   0.5796250   0.7078964  )
        55           H   tau(  55) = (   1.0028922   0.7987024   0.8684139  )
        56           H   tau(  56) = (   1.0028922   0.7987024   0.7078964  )
        57           H   tau(  57) = (   0.8755108   0.1405734   0.8684139  )
        58           H   tau(  58) = (   0.8755108   0.1405734   0.7078964  )
        59           H   tau(  59) = (   1.0013040   0.3596507   0.8684139  )
        60           H   tau(  60) = (   1.0013040   0.3596507   0.7078964  )
        61           H   tau(  61) = (   1.1270972   0.5787280   0.8684139  )
        62           H   tau(  62) = (   1.1270972   0.5787280   0.7078964  )
        63           H   tau(  63) = (   1.2528904   0.7978054   0.8684139  )
        64           H   tau(  64) = (   1.2528904   0.7978054   0.7078964  )

     number of k points=   130  Gaussian smearing, width (Ry)=  0.0100

     Number of k-points >= 100: set verbosity='high' to print them.

     Dense  grid:  2904951 G-vectors     FFT dimensions: ( 160, 162, 256)

     Smooth grid:  1026963 G-vectors     FFT dimensions: ( 120, 120, 180)

     Estimated max dynamical RAM per process >      44.33 MB

     Estimated total dynamical RAM >       8.96 GB

     The potential is recalculated from file :
     TMPDIR/pwscf.save/charge-density


     negative rho (up, down):  1.284E-03 0.000E+00


     %%%%%%%%%%%%%%%%%%%%%%%%%%%%%%%%%%%%%%%%%%%%%%%%%%%%%%%%%%%%%%%%%%%%%%%%
     %                                                                      %
     % You are using vdW-DF, which was implemented by the Thonhauser group. %
     % Please cite the following two papers that made this development      %
     % possible and the two reviews that describe the various versions:     %
     %                                                                      %
     %   T. Thonhauser et al., PRL 115, 136402 (2015).                      %
     %   T. Thonhauser et al., PRB 76, 125112 (2007).                       %
     %   K. Berland et al., Rep. Prog. Phys. 78, 066501 (2015).             %
     %   D.C. Langreth et al., J. Phys.: Condens. Matter 21, 084203 (2009). %
     %                                                                      %
     % If you are calculating stress with vdW-DF, please also cite:         %
     %                                                                      %
     %   R. Sabatini et al., J. Phys.: Condens. Matter 24, 424209 (2012).   %
     %                                                                      %
     %%%%%%%%%%%%%%%%%%%%%%%%%%%%%%%%%%%%%%%%%%%%%%%%%%%%%%%%%%%%%%%%%%%%%%%%

     %%%%%%%%%%%%%%%%%%%%%%%%%%%%%%%%%%%%%%%%%%%%%%%%%%%%%%%%%%%%%%%%%%%%%%%%
     %                                                                      %
     %  vdW-DF NEWS:                                                        %
     %                                                                      %
     %  * vdW-DF3 is now available. DOI: 10.1021/acs.jctc.0c00471           %
     %    use with input_dft = 'vdW-DF3-opt1' or 'vdW-DF3-opt2'             %
     %                                                                      %
     %  * Unscreened and range-separated hybrid vdW-DF-cx functionals       %
     %    DOI: 10.1063/1.4986522 and 10.1088/1361-648X/ac2ad2               %
     %    use with input_dft = 'vdW-DF-cx0'    and 'vdW-DF-ahcx'            %
     %  * Unscreened and range-separated hybrid vdW-DF2-b86r functionals    %
     %    DOI: 10.1063/1.4986522 and DOI: 10.1103/PhysRevX.12.041003        %
     %    use with input_dft = 'vdW-DF2-br0' and 'vdW-DF2-ahbr'             %
     %                                                                      %
     %%%%%%%%%%%%%%%%%%%%%%%%%%%%%%%%%%%%%%%%%%%%%%%%%%%%%%%%%%%%%%%%%%%%%%%%


     Starting wfcs are  160 randomized atomic wfcs

     Band Structure Calculation
     RMM-DIIS diagonalization
     c_bands:  1 eigenvalues not converged
     c_bands:  1 eigenvalues not converged
     c_bands:  1 eigenvalues not converged
     c_bands:  1 eigenvalues not converged
     c_bands:  1 eigenvalues not converged
     c_bands:  1 eigenvalues not converged
     c_bands:  1 eigenvalues not converged
     c_bands:  1 eigenvalues not converged
     c_bands:  1 eigenvalues not converged
     c_bands:  1 eigenvalues not converged
     c_bands:  1 eigenvalues not converged

     ethr =  7.81E-13,  avg # of iterations = 77.4

     total cpu time spent up to now is      563.3 secs

     End of band structure calculation

     Number of k-points >= 100: set verbosity='high' to print the bands.

     the Fermi energy is    -2.1103 ev
     (compare with:    -2.1010 eV, computed in scf)

     Writing all to output data dir TMPDIR/pwscf.save/
 
     init_run     :      3.81s CPU      4.01s WALL (       1 calls)
     electrons    :    548.65s CPU    558.80s WALL (       1 calls)

     Called by init_run:
     wfcinit      :      0.00s CPU      0.02s WALL (       1 calls)
     potinit      :      1.52s CPU      1.61s WALL (       1 calls)
     hinit0       :      0.18s CPU      0.20s WALL (       1 calls)

     Called by electrons:
     c_bands      :    548.64s CPU    558.79s WALL (       1 calls)
     v_of_rho     :      1.45s CPU      1.50s WALL (       1 calls)
     newd         :      0.02s CPU      0.04s WALL (       1 calls)
     vdW_kernel   :      1.10s CPU      1.11s WALL (       1 calls)

     Called by c_bands:
     init_us_2    :      0.31s CPU      0.32s WALL (      65 calls)
     init_us_2:cp :      0.31s CPU      0.32s WALL (      65 calls)
     wfcrot       :     25.16s CPU     25.82s WALL (      65 calls)

     Called by *rmmdiagg:
     h_psi        :    344.61s CPU    350.56s WALL (    5902 calls)
     s_psi        :     33.83s CPU     34.23s WALL (    5902 calls)
     g_psi        :      0.73s CPU      0.74s WALL (    5531 calls)

     Called by h_psi:
     h_psi:calbec :     42.01s CPU     44.44s WALL (    5902 calls)
     vloc_psi     :    261.49s CPU    264.49s WALL (    5902 calls)
     add_vuspsi   :     39.65s CPU     40.16s WALL (    5902 calls)

     General routines
     calbec       :     41.97s CPU     44.41s WALL (    5902 calls)
     fft          :      0.26s CPU      0.27s WALL (      63 calls)
     ffts         :      0.01s CPU      0.01s WALL (       1 calls)
     fftw         :    241.26s CPU    243.94s WALL (  310584 calls)
     interpolate  :      0.02s CPU      0.02s WALL (       1 calls)
     davcio       :      0.01s CPU      0.76s WALL (     130 calls)
 
     Parallel routines
 
     PWSCF        :   9m30.01s CPU   9m52.13s WALL

 
   This run was terminated on:  12:59:10   9May2024            

=------------------------------------------------------------------------------=
   JOB DONE.
=------------------------------------------------------------------------------=
