63
Lattice="12.053387492 -0.043247814 0.0 6.064975534 10.562567369 0.0 0.0 0.0 19.000001291" Properties=species:S:1:pos:R:3:forces:R:3 pbc="T T T"
B        0.01756233      -0.00181136       9.49998670      -0.00058178       0.00103376       0.00000163
B        1.51065494       0.80625082       9.49998181      -0.00043103      -0.00024273      -0.00000027
B        1.50818637       2.64000224       9.49998046      -0.00129390       0.00052572       0.00000000
B        3.02571735       3.43048509       9.49997670      -0.00000327      -0.00072573      -0.00000082
B        3.03234393       5.25969367       9.49997361      -0.00000952      -0.00148601      -0.00000109
B        4.50672822       6.08832940       9.49997367       0.00022068      -0.00006558      -0.00000136
B        4.53430535       7.92871116       9.49998196       0.00150288       0.00007293      -0.00000218
B        6.03516648       8.69960206       9.49998312       0.00065715       0.00023483       0.00000082
B        3.01349757       0.04242386       9.49998022      -0.00000190       0.00000980       0.00000327
B        4.52179554       0.79546790       9.49998430       0.00043076      -0.00024572       0.00000082
B        4.53752425       2.62914908       9.49998108       0.00129445       0.00052083       0.00000109
B        6.05326720       3.41920630       9.49998561       0.00095811       0.00066341      -0.00000054
B        5.99425842       5.22048615       9.49997429       0.00089825      -0.00111730      -0.00000245
B        7.11372364       6.37727747       9.49996922       0.00024191      -0.00067403      -0.00000327
B        7.62055834       7.93600016       9.49997999      -0.00082995       0.00194507      -0.00000082
B        9.07185336       8.77220480       9.49998013      -0.00000000       0.00021687      -0.00000027
B        6.00904506      -0.02326489       9.49999103       0.00058967       0.00103050       0.00000027
B        7.53626261       0.78799967       9.49999074       0.00025524       0.00025225       0.00000190
B        7.58835208       2.61699583       9.49998877      -0.00002640      -0.00132329       0.00000027
B        9.05289421       3.54717350       9.49998956       0.00001497       0.00250263       0.00000381
B       11.01262267       6.36331653       9.49996633      -0.00025034      -0.00068001      -0.00000027
B       10.51713411       7.92568305       9.49998190       0.00084165       0.00194099       0.00000082
B       12.10793539       8.67789950       9.49998750      -0.00064872       0.00024273       0.00000190
B        9.03996561      -0.04099310       9.49998835      -0.00000354      -0.00033089       0.00000354
B       10.54960518       0.77716602       9.49998528      -0.00024926       0.00025062       0.00000109
B       10.51073036       2.60651925       9.49998293       0.00001687      -0.00132764       0.00000136
B       12.05156316       3.39767130       9.49998104      -0.00094723       0.00066586      -0.00000136
B       12.12363581       5.19846720       9.49997096      -0.00090995      -0.00111322      -0.00000163
B       13.61736565       6.05566913       9.49997472      -0.00022204      -0.00005823      -0.00000163
B       13.60316810       7.89620066       9.49998612      -0.00150833       0.00007864      -0.00000000
B       15.09832589       8.69352789       9.49998673      -0.00000816      -0.00122832      -0.00000218
H        1.49610679       1.72662711      10.46702665       0.00126397       0.00099539       0.00016735
H        1.49609598       1.72662612       8.53293474       0.00126669       0.00099158      -0.00016626
H        3.02908518       4.36234388      10.46839148      -0.00000653      -0.00070233       0.00085825
H        3.02908185       4.36234002       8.53155876      -0.00000435      -0.00070586      -0.00085934
H        4.51977353       7.00665905      10.46659202       0.00112710      -0.00122751       0.00020272
H        4.51977038       7.00666673       8.53336239       0.00113036      -0.00122805      -0.00020517
H        6.09212492       9.60299631      10.46741378      -0.00087566       0.00063620      -0.00125064
H        6.09212211       9.60299833       8.53255617      -0.00087376       0.00063620       0.00125145
H        4.54298208       1.71571425      10.46702830      -0.00125390       0.00100573       0.00016708
H        4.54299095       1.71571092       8.53293531      -0.00125907       0.00100301      -0.00017034
H        6.07252194       4.36062112      10.48027011       0.00064736       0.00055702      -0.00052817
H        6.07253281       4.36061025       8.51969147       0.00064491       0.00055811       0.00052545
H        7.71049176       6.95635897      10.47619337       0.00078450      -0.00060409      -0.00139812
H        7.71048993       6.95636931       8.52375138       0.00077933      -0.00059919       0.00139350
H        9.07499938       9.64696903      10.47034492       0.00000354       0.00068219      -0.00063130
H        9.07500130       9.64696873       8.52961438       0.00000054       0.00068545       0.00063539
H        7.54791698       1.67613377      10.47018222       0.00043184      -0.00086614      -0.00001714
H        7.54791299       1.67613058       8.52979678       0.00042994      -0.00086859       0.00001932
H        9.05559755       4.30112435      10.49677273       0.00000653      -0.00016300      -0.00039429
H        9.05559563       4.30115250       8.50322856       0.00000544      -0.00015211       0.00040763
H       10.42014747       6.94674191      10.47620439      -0.00078206      -0.00059566      -0.00139785
H       10.42014939       6.94675762       8.52373838      -0.00078505      -0.00059321       0.00139404
H       12.05752695       9.58167198      10.46742164       0.00087539       0.00063348      -0.00125227
H       12.05752802       9.58167371       8.53255641       0.00087757       0.00063130       0.00125444
H       10.54438024       1.66537297      10.47017219      -0.00043103      -0.00086587      -0.00001551
H       10.54438018       1.66536875       8.52979323      -0.00043538      -0.00086968       0.00001170
H       12.03914553       4.33920601      10.48026995      -0.00064246       0.00056028      -0.00052327
H       12.03914126       4.33919519       8.51968257      -0.00063756       0.00055947       0.00052110
H       13.61098383       6.97406262      10.46659653      -0.00114152      -0.00121744       0.00020381
H       13.61098021       6.97407397       8.53336397      -0.00114424      -0.00121934      -0.00020517
H       15.10164092       9.60941623      10.46690868       0.00000327       0.00038559       0.00089117
H       15.10163859       9.60941804       8.53306477      -0.00000272       0.00038831      -0.00089117
