63
Lattice="12.05952009 -0.043305996 0.0 6.067988953 10.557413434 0.0 0.0 0.0 18.999996437" Properties=species:S:1:pos:R:3:forces:R:3 pbc="T T T"
B        0.01800135      -0.00638435       9.50007902       0.00000000       0.00000000       0.00000000
B        1.50916875       0.81314576       9.50007902       0.00000000       0.00000000       0.00000000
B        1.50498528       2.63917910       9.50006455       0.00000000       0.00000000       0.00000000
B        3.02730381       3.43395327       9.50005852       0.00000000       0.00000000       0.00000000
B        3.03388594       5.25521825       9.50003319       0.00000000       0.00000000       0.00000000
B        4.50773577       6.08828645       9.50002475       0.00000000       0.00000000       0.00000000
B        4.53483246       7.92388787       9.50005852       0.00000000       0.00000000       0.00000000
B        6.03597677       8.69781825       9.50005128       0.00000000       0.00000000       0.00000000
B        3.01509709       0.04720607       9.50007781       0.00000000       0.00000000       0.00000000
B        4.52649446       0.80233674       9.50007902       0.00000000       0.00000000       0.00000000
B        4.54386992       2.62828808       9.50006455       0.00000000       0.00000000       0.00000000
B        6.06117528       3.42727346       9.50004163       0.00000000       0.00000000       0.00000000
B        5.99693383       5.22202543       9.49999460       0.00000000       0.00000000       0.00000000
B        7.09269252       6.39995938       9.49997651       0.00000000       0.00000000       0.00000000
B        7.62636084       7.93972815       9.50002716       0.00000000       0.00000000       0.00000000
B        9.07650633       8.77966067       9.50003922       0.00000000       0.00000000       0.00000000
B        6.01173216      -0.02786369       9.50007781       0.00000000       0.00000000       0.00000000
B        7.53873584       0.78949448       9.50007299       0.00000000       0.00000000       0.00000000
B        7.59289668       2.60507216       9.50004646       0.00000000       0.00000000       0.00000000
B        9.05752333       3.53957601       9.50001148       0.00000000       0.00000000       0.00000000
B       11.04303151       6.38575801       9.49997651       0.00000000       0.00000000       0.00000000
B       10.52060032       7.92938946       9.50002716       0.00000000       0.00000000       0.00000000
B       12.11634730       8.67606274       9.50005007       0.00000000       0.00000000       0.00000000
B        9.04459665      -0.04455537       9.50007902       0.00000000       0.00000000       0.00000000
B       10.55643540       0.77862759       9.50007419       0.00000000       0.00000000       0.00000000
B       10.51539178       2.59456946       9.50004646       0.00000000       0.00000000       0.00000000
B       12.05299947       3.40573262       9.50004163       0.00000000       0.00000000       0.00000000
B       12.13022066       5.19996361       9.49999460       0.00000000       0.00000000       0.00000000
B       13.62560288       6.05556757       9.50002354       0.00000000       0.00000000       0.00000000
B       13.61183927       7.89131371       9.50005852       0.00000000       0.00000000       0.00000000
B       15.10600589       8.69301612       9.50007902       0.00000000       0.00000000       0.00000000
H        1.48928972       1.72931058      10.46670962       0.00000000       0.00000000       0.00000000
H        1.48929454       1.72929491       8.53343394       0.00000000       0.00000000       0.00000000
H        3.03063829       4.35954267      10.46800241       0.00000000       0.00000000       0.00000000
H        3.03063950       4.35951614       8.53209171       0.00000000       0.00000000       0.00000000
H        4.51755107       7.00538349      10.46575329       0.00000000       0.00000000       0.00000000
H        4.51752092       7.00541846       8.53433238       0.00000000       0.00000000       0.00000000
H        6.09291131       9.59968160      10.46701352       0.00000000       0.00000000       0.00000000
H        6.09289925       9.59970814       8.53311557       0.00000000       0.00000000       0.00000000
H        4.55297733       1.71833274      10.46671083       0.00000000       0.00000000       0.00000000
H        4.55297250       1.71831706       8.53343394       0.00000000       0.00000000       0.00000000
H        6.09230712       4.36241888      10.47942284       0.00000000       0.00000000       0.00000000
H        6.09228300       4.36237064       8.52061098       0.00000000       0.00000000       0.00000000
H        7.71304881       6.96662396      10.47097630       0.00000000       0.00000000       0.00000000
H        7.71304640       6.96667702       8.52901410       0.00000000       0.00000000       0.00000000
H        9.07965148       9.65309836      10.46983908       0.00000000       0.00000000       0.00000000
H        9.07965268       9.65313575       8.53027795       0.00000000       0.00000000       0.00000000
H        7.54413613       1.67282225      10.47042639       0.00000000       0.00000000       0.00000000
H        7.54412890       1.67279330       8.52969547       0.00000000       0.00000000       0.00000000
H        9.06021624       4.28907003      10.49202873       0.00000000       0.00000000       0.00000000
H        9.06021624       4.28903023       8.50796770       0.00000000       0.00000000       0.00000000
H       10.42689608       6.95696181      10.47098957       0.00000000       0.00000000       0.00000000
H       10.42689729       6.95701608       8.52899963       0.00000000       0.00000000       0.00000000
H       12.06594423       9.57830839      10.46701473       0.00000000       0.00000000       0.00000000
H       12.06595509       9.57833492       8.53311316       0.00000000       0.00000000       0.00000000
H       10.55742308       1.66198067      10.47042518       0.00000000       0.00000000       0.00000000
H       10.55742911       1.66195052       8.52969788       0.00000000       0.00000000       0.00000000
H       12.02864874       4.34107823      10.47942646       0.00000000       0.00000000       0.00000000
H       12.02867286       4.34103120       8.52060615       0.00000000       0.00000000       0.00000000
H       13.62243001       6.97270561      10.46575450       0.00000000       0.00000000       0.00000000
H       13.62245895       6.97274058       8.53432997       0.00000000       0.00000000       0.00000000
H       15.10930298       9.60674611      10.46661314       0.00000000       0.00000000       0.00000000
H       15.10930298       9.60674853       8.53354730       0.00000000       0.00000000       0.00000000
