63
Lattice="12.05952009 -0.043305996 0.0 6.067988953 10.557413434 0.0 0.0 0.0 18.999996437" Properties=species:S:1:pos:R:3:forces:R:3 pbc="T T T"
B       -0.00299560       0.00424739       9.62983842       0.00000000       0.00000000       0.00000000
B        1.50203430       0.82659341       9.59375251       0.00000000       0.00000000       0.00000000
B        1.50304007       2.64731450       9.46817356       0.00000000       0.00000000       0.00000000
B        3.02740150       3.45557009       9.44014224       0.00000000       0.00000000       0.00000000
B        3.03400895       5.28124767       9.44013983       0.00000000       0.00000000       0.00000000
B        4.55837038       6.08950568       9.46816873       0.00000000       0.00000000       0.00000000
B        4.55937374       7.91022677       9.59374647       0.00000000       0.00000000       0.00000000
B        6.06440364       8.73256917       9.62983481       0.00000000       0.00000000       0.00000000
B        3.01496565       0.01211627       9.62518704       0.00000000       0.00000000       0.00000000
B        4.53372419       0.81570601       9.59374044       0.00000000       0.00000000       0.00000000
B        4.54589955       2.63638610       9.46816632       0.00000000       0.00000000       0.00000000
B        6.07043584       3.45653365       9.42781251       0.00000000       0.00000000       0.00000000
B        6.07696008       5.25842851       9.42781734       0.00000000       0.00000000       0.00000000
B        7.59718628       6.09680414       9.46798904       0.00000000       0.00000000       0.00000000
B        7.57990488       7.90373750       9.60041905       0.00000000       0.00000000       0.00000000
B        9.07636041       8.74719987       9.63468397       0.00000000       0.00000000       0.00000000
B        6.03279183      -0.01742973       9.62982395       0.00000000       0.00000000       0.00000000
B        7.55421795       0.80049886       9.60040940       0.00000000       0.00000000       0.00000000
B        7.58458642       2.60725615       9.46797216       0.00000000       0.00000000       0.00000000
B        9.05749800       3.53028530       9.46416374       0.00000000       0.00000000       0.00000000
B        9.06343253       5.16322285       9.46416254       0.00000000       0.00000000       0.00000000
B       10.53634171       6.08625682       9.46796854       0.00000000       0.00000000       0.00000000
B       10.56670655       7.89301532       9.60040458       0.00000000       0.00000000       0.00000000
B       12.08813268       8.71094029       9.62982033       0.00000000       0.00000000       0.00000000
B        9.04456409      -0.05368569       9.63468759       0.00000000       0.00000000       0.00000000
B       10.54102083       0.78977427       9.60042387       0.00000000       0.00000000       0.00000000
B       10.52374305       2.59670642       9.46799146       0.00000000       0.00000000       0.00000000
B       12.04396804       3.43507964       9.42781975       0.00000000       0.00000000       0.00000000
B       12.05049107       5.23697570       9.42781010       0.00000000       0.00000000       0.00000000
B       13.57502616       6.05712567       9.46816270       0.00000000       0.00000000       0.00000000
B       13.58720032       7.87780696       9.59373442       0.00000000       0.00000000       0.00000000
B       15.10595886       8.68139791       9.62518222       0.00000000       0.00000000       0.00000000
H        1.49098771       1.80401373      10.49473069       0.00000000       0.00000000       0.00000000
H        1.49336345       1.67204561       8.56703739       0.00000000       0.00000000       0.00000000
H        3.03070462       4.36841009      10.40595520       0.00000000       0.00000000       0.00000000
H        3.03070462       4.36840768       8.47466574       0.00000000       0.00000000       0.00000000
H        4.57041670       6.93280765      10.49472586       0.00000000       0.00000000       0.00000000
H        4.56804096       7.06477457       8.56703137       0.00000000       0.00000000       0.00000000
H        6.06470030       9.64711439      10.59582746       0.00000000       0.00000000       0.00000000
H        6.06469789       9.64711922       8.66356358       0.00000000       0.00000000       0.00000000
H        4.55184493       1.79301900      10.49472104       0.00000000       0.00000000       0.00000000
H        4.54851045       1.66107500       8.56702654       0.00000000       0.00000000       0.00000000
H        6.10766139       4.35735385      10.39740736       0.00000000       0.00000000       0.00000000
H        6.07800927       4.35746721       8.45671745       0.00000000       0.00000000       0.00000000
H        7.60178460       6.93454665      10.50246330       0.00000000       0.00000000       0.00000000
H        7.61156252       7.08685206       8.56852434       0.00000000       0.00000000       0.00000000
H        9.07968645       9.66369030      10.59669575       0.00000000       0.00000000       0.00000000
H        9.07963459       9.65203953       8.66296301       0.00000000       0.00000000       0.00000000
H        7.58309706       1.76950762      10.50245124       0.00000000       0.00000000       0.00000000
H        7.59178840       1.61713226       8.56850987       0.00000000       0.00000000       0.00000000
H        9.06046587       4.34675227       8.40330069       0.00000000       0.00000000       0.00000000
H       10.53782263       6.92400656      10.50244521       0.00000000       0.00000000       0.00000000
H       10.52913490       7.07638072       8.56850505       0.00000000       0.00000000       0.00000000
H       12.09445914       9.62546140      10.59581178       0.00000000       0.00000000       0.00000000
H       12.09445673       9.62546622       8.66354790       0.00000000       0.00000000       0.00000000
H       10.51914352       1.75896512      10.50246812       0.00000000       0.00000000       0.00000000
H       10.50936560       1.60665729       8.56852796       0.00000000       0.00000000       0.00000000
H       12.01326432       4.33615671      10.39740736       0.00000000       0.00000000       0.00000000
H       12.04291524       4.33603852       8.45671624       0.00000000       0.00000000       0.00000000
H       13.56908319       6.90049518      10.49471622       0.00000000       0.00000000       0.00000000
H       13.57241405       7.03243677       8.56702292       0.00000000       0.00000000       0.00000000
H       15.10923183       9.58723611      10.59669454       0.00000000       0.00000000       0.00000000
H       15.10928490       9.59889532       8.66296181       0.00000000       0.00000000       0.00000000
