63
Lattice="12.053387492 -0.043247814 0.0 6.064975534 10.562567369 0.0 0.0 0.0 19.000001291" Properties=species:S:1:pos:R:3:forces:R:3 pbc="T T T"
B       -0.00308010       0.00462371       9.64187514      -0.00001605       0.00020082       0.00051076
B        1.50155332       0.82050470       9.60280631      -0.00005769      -0.00085634       0.00008218
B        1.50252958       2.64702095       9.46289265      -0.00067022       0.00013742      -0.00017415
B        3.02581677       3.45147685       9.43158143       0.00000136       0.00058885      -0.00010422
B        3.03245470       5.28336560       9.43159054      -0.00000327      -0.00058994      -0.00010313
B        4.55574243       6.08782100       9.46290254       0.00066831      -0.00014014      -0.00017034
B        4.55671768       7.91433698       9.60281828       0.00005850       0.00085770       0.00009334
B        6.06134935       8.73022029       9.64188073       0.00002313      -0.00020381       0.00050532
B        3.01338511       0.01130705       9.63741067      -0.00001116      -0.00138397      -0.00099049
B        4.53100561       0.80963403       9.60278339       0.00005361      -0.00085689       0.00009415
B        4.54326860       2.63610811       9.46287777       0.00066641       0.00013851      -0.00017089
B        6.06664414       3.45260123       9.42051618       0.00050015       0.00059430      -0.00025987
B        6.07319997       5.26042023       9.42053583       0.00048953      -0.00059947      -0.00025715
B        7.59301810       6.09362411       9.46478551      -0.00088002       0.00072273       0.00115077
B        7.57588153       7.90673353       9.60985180      -0.00088682       0.00005034      -0.00044926
B        9.07172949       8.74403334       9.64740687      -0.00000218      -0.00208004       0.00083457
B        6.02972098      -0.01702786       9.64184619       0.00002286       0.00020409       0.00051892
B        7.55013862       0.79556863       9.60981668      -0.00088383      -0.00003946      -0.00045606
B        7.58042544       2.60850165       9.46474700      -0.00088519      -0.00071729       0.00115376
B        9.05284984       3.52936956       9.45636324      -0.00001170       0.00069335       0.00055974
B        9.05880341       5.16222264       9.45636783       0.00001170      -0.00069280       0.00054287
B       10.53122828       6.08309026       9.46475581       0.00087811       0.00071267       0.00114968
B       10.56151354       7.89602296       9.60982876       0.00088328       0.00003429      -0.00045497
B       12.08193087       8.70861974       9.64185669      -0.00002340      -0.00020653       0.00050858
B        9.03992255      -0.05244277       9.64740031       0.00000408       0.00208167       0.00083838
B       10.53577008       0.78485934       9.60984380       0.00088736      -0.00005388      -0.00044953
B       10.51863471       2.59796878       9.46477985       0.00088056      -0.00072954       0.00115458
B       12.03845449       3.43117123       9.42053378      -0.00049171       0.00059566      -0.00026368
B       12.04500998       5.23899097       9.42052661      -0.00050232      -0.00059593      -0.00026232
B       13.56838539       6.05548367       9.46289378      -0.00066695      -0.00013633      -0.00017198
B       13.58064652       7.88195762       9.60279941      -0.00004789       0.00086042       0.00009878
B       15.09826718       8.68028344       9.63742122       0.00000980       0.00138615      -0.00098968
H        1.49147381       1.80880209      10.49671795      -0.00057443       0.00058096       0.00012436
H        1.49337073       1.66232707       8.56864291       0.00095131       0.00058477      -0.00023266
H        3.02913840       4.36741627      10.39843636      -0.00000163      -0.00000517       0.00106723
H        3.02913504       4.36742600       8.46547249       0.00000082      -0.00000299      -0.00113635
H        4.56680685       6.92603901      10.49672932       0.00057960      -0.00058314       0.00012817
H        4.56490485       7.07251531       8.56865486      -0.00095294      -0.00058695      -0.00022830
H        6.06162495       9.64870614      10.60811961      -0.00000190       0.00000381      -0.00126859
H        6.06161836       9.64870066       8.67487773       0.00000136      -0.00000082       0.00206371
H        4.54825570       1.79782767      10.49669950       0.00057552       0.00057525       0.00014014
H        4.54529418       1.65137672       8.56862288      -0.00095458       0.00059266      -0.00022722
H        6.09880945       4.35639398      10.39109195      -0.00267270       0.00001061      -0.00148656
H        6.07303275       4.35650910       8.44898004       0.00119240      -0.00000381       0.00000980
H        7.59671247       6.92737761      10.50561661       0.00017524      -0.00007238      -0.00044980
H        7.60622931       7.09319613       8.57165369       0.00121608      -0.00058368       0.00003674
H        9.07507800       9.66457958      10.60963737       0.00000544       0.00118451      -0.00013524
H        9.07501278       9.65260793       8.67469440       0.00000844       0.00126832      -0.00041089
H        7.57805089       1.77474617      10.50557954       0.00018041       0.00008000      -0.00044545
H        7.58638955       1.60886677       8.57161602       0.00121662       0.00057144       0.00003918
H        9.05582824       4.34579717       8.39036152      -0.00000218       0.00000707       0.00048409
H       10.53359978       6.91684255      10.50558908      -0.00017606      -0.00007129      -0.00044518
H       10.52526566       7.08272688       8.57162547      -0.00122070      -0.00057226       0.00003674
H       12.08831452       9.62708297      10.60809348      -0.00000571       0.00000190      -0.00126370
H       12.08831179       9.62707240       8.67485044       0.00000571       0.00000136       0.00206262
H       10.51493338       1.76421279      10.50561029      -0.00017579       0.00008517      -0.00044763
H       10.50542255       1.59839863       8.57164651      -0.00121553       0.00058641       0.00003320
H       12.01284597       4.33519137      10.39109611       0.00266998      -0.00000517      -0.00148601
H       12.03862477       4.33508955       8.44898422      -0.00119458       0.00000517       0.00001034
H       13.56339956       6.89376386      10.49671608      -0.00058260      -0.00057906       0.00013442
H       13.56636023       7.04021505       8.56863969       0.00095648      -0.00059457      -0.00023102
H       15.10154902       9.58958195      10.60963977      -0.00000027      -0.00118370      -0.00013252
H       15.10161564       9.60153625       8.67469626      -0.00000109      -0.00126968      -0.00041225
