64
Lattice="12.053387492 -0.043247814 0.0 6.064975534 10.562567369 0.0 0.0 0.0 19.000001291" Properties=species:S:1:pos:R:3:forces:R:3 pbc="T T T"
B        0.00000000       0.00000000       9.50000004       0.00000000       0.00000000       0.00000000
B        1.50951866       0.81281542       9.50000004       0.00000000       0.00000000       0.00000000
B        1.51624328       2.64064064       9.50000004       0.00000000       0.00000000       0.00000000
B        3.02576194       3.45345606       9.50000004       0.00000000       0.00000000       0.00000000
B        3.03248777       5.28128127       9.50000004       0.00000000       0.00000000       0.00000000
B        4.54200642       6.09409669       9.50000004       0.00000000       0.00000000       0.00000000
B        4.54873105       7.92192191       9.50000004       0.00000000       0.00000000       0.00000000
B        6.05824970       8.73473733       9.50000004       0.00000000       0.00000000       0.00000000
B        3.01334567      -0.01081316       9.50000004       0.00000000       0.00000000       0.00000000
B        4.52286432       0.80200226       9.50000004       0.00000000       0.00000000       0.00000000
B        4.52958895       2.62982868       9.50000004       0.00000000       0.00000000       0.00000000
B        6.03910760       3.44264290       9.50000004       0.00000000       0.00000000       0.00000000
B        6.04583343       5.27046932       9.50000004       0.00000000       0.00000000       0.00000000
B        7.55535209       6.08328353       9.50000004       0.00000000       0.00000000       0.00000000
B        7.56207672       7.91110996       9.50000004       0.00000000       0.00000000       0.00000000
B        9.07159537       8.72392417       9.50000004       0.00000000       0.00000000       0.00000000
B        6.02669133      -0.02162511       9.50000004       0.00000000       0.00000000       0.00000000
B        7.53620999       0.79118910       9.50000004       0.00000000       0.00000000       0.00000000
B        7.54293462       2.61901553       9.50000004       0.00000000       0.00000000       0.00000000
B        9.05245327       3.43183094       9.50000004       0.00000000       0.00000000       0.00000000
B        9.05917910       5.25965616       9.50000004       0.00000000       0.00000000       0.00000000
B       10.56869776       6.07247158       9.50000004       0.00000000       0.00000000       0.00000000
B       10.57542238       7.90029680       9.50000004       0.00000000       0.00000000       0.00000000
B       12.08494104       8.71311222       9.50000004       0.00000000       0.00000000       0.00000000
B        9.04003700      -0.03243827       9.50000004       0.00000000       0.00000000       0.00000000
B       10.54955566       0.78037715       9.50000004       0.00000000       0.00000000       0.00000000
B       10.55628028       2.60820357       9.50000004       0.00000000       0.00000000       0.00000000
B       12.06579894       3.42101779       9.50000004       0.00000000       0.00000000       0.00000000
B       12.07252477       5.24884421       9.50000004       0.00000000       0.00000000       0.00000000
B       13.58204343       6.06165842       9.50000004       0.00000000       0.00000000       0.00000000
B       13.58876805       7.88948485       9.50000004       0.00000000       0.00000000       0.00000000
B       15.09828671       8.70229906       9.50000004       0.00000000       0.00000000       0.00000000
H        1.51290206       1.72683410      10.46739626       0.00000000       0.00000000       0.00000000
H        1.51290206       1.72683410       8.53260503       0.00000000       0.00000000       0.00000000
H        3.02914655       4.36747474      10.46739626       0.00000000       0.00000000       0.00000000
H        3.02914655       4.36747474       8.53260503       0.00000000       0.00000000       0.00000000
H        4.54538983       7.00811537      10.46739626       0.00000000       0.00000000       0.00000000
H        4.54538983       7.00811537       8.53260503       0.00000000       0.00000000       0.00000000
H        6.06163432       9.64875721      10.46739626       0.00000000       0.00000000       0.00000000
H        6.06163432       9.64875721       8.53260503       0.00000000       0.00000000       0.00000000
H        4.52624773       1.71602214      10.46739626       0.00000000       0.00000000       0.00000000
H        4.52624773       1.71602214       8.53260503       0.00000000       0.00000000       0.00000000
H        6.04249222       4.35666278      10.46739626       0.00000000       0.00000000       0.00000000
H        6.04249222       4.35666278       8.53260503       0.00000000       0.00000000       0.00000000
H        7.55873550       6.99730342      10.46739626       0.00000000       0.00000000       0.00000000
H        7.55873550       6.99730342       8.53260503       0.00000000       0.00000000       0.00000000
H        9.07497998       9.63794406      10.46739626       0.00000000       0.00000000       0.00000000
H        9.07497998       9.63794406       8.53260503       0.00000000       0.00000000       0.00000000
H        7.53959340       1.70520899      10.46739626       0.00000000       0.00000000       0.00000000
H        7.53959340       1.70520899       8.53260503       0.00000000       0.00000000       0.00000000
H        9.05583788       4.34584962      10.46739626       0.00000000       0.00000000       0.00000000
H        9.05583788       4.34584962       8.53260503       0.00000000       0.00000000       0.00000000
H       10.57208116       6.98649026      10.46739626       0.00000000       0.00000000       0.00000000
H       10.57208116       6.98649026       8.53260503       0.00000000       0.00000000       0.00000000
H       12.08832565       9.62713090      10.46739626       0.00000000       0.00000000       0.00000000
H       12.08832565       9.62713090       8.53260503       0.00000000       0.00000000       0.00000000
H       10.55293907       1.69439703      10.46739626       0.00000000       0.00000000       0.00000000
H       10.55293907       1.69439703       8.53260503       0.00000000       0.00000000       0.00000000
H       12.06918235       4.33503767      10.46739626       0.00000000       0.00000000       0.00000000
H       12.06918235       4.33503767       8.53260503       0.00000000       0.00000000       0.00000000
H       13.58542683       6.97567831      10.46739626       0.00000000       0.00000000       0.00000000
H       13.58542683       6.97567831       8.53260503       0.00000000       0.00000000       0.00000000
H       15.10167011       9.61631894      10.46739626       0.00000000       0.00000000       0.00000000
H       15.10167011       9.61631894       8.53260503       0.00000000       0.00000000       0.00000000
