64
Lattice="12.05952009 -0.043305996 0.0 6.067988953 10.557413434 0.0 0.0 0.0 18.999996437" Properties=species:S:1:pos:R:3:forces:R:3 pbc="T T T"
B        0.00000000       0.00000000       9.49999822       0.00000000       0.00000000       0.00000000
B        1.51036145       0.81871970       9.49999822       0.00000000       0.00000000       0.00000000
B        1.51699784       2.63935396       9.49999822       0.00000000       0.00000000       0.00000000
B        3.02735929       3.45807366       9.49999822       0.00000000       0.00000000       0.00000000
B        3.03399689       5.27870792       9.49999822       0.00000000       0.00000000       0.00000000
B        4.54435834       6.09742883       9.49999822       0.00000000       0.00000000       0.00000000
B        4.55099473       7.91806309       9.49999822       0.00000000       0.00000000       0.00000000
B        6.06135618       8.73678279       9.49999822       0.00000000       0.00000000       0.00000000
B        3.01487882      -0.01082710       9.49999822       0.00000000       0.00000000       0.00000000
B        4.52524026       0.80789260       9.49999822       0.00000000       0.00000000       0.00000000
B        4.53187666       2.62852686       9.49999822       0.00000000       0.00000000       0.00000000
B        6.04223811       3.44724656       9.49999822       0.00000000       0.00000000       0.00000000
B        6.04887571       5.26788082       9.49999822       0.00000000       0.00000000       0.00000000
B        7.55923595       6.08660052       9.49999822       0.00000000       0.00000000       0.00000000
B        7.56587355       7.90723478       9.49999822       0.00000000       0.00000000       0.00000000
B        9.07623499       8.72595569       9.49999822       0.00000000       0.00000000       0.00000000
B        6.02975763      -0.02165541       9.49999822       0.00000000       0.00000000       0.00000000
B        7.54011787       0.79706429       9.49999822       0.00000000       0.00000000       0.00000000
B        7.54675547       2.61769855       9.49999822       0.00000000       0.00000000       0.00000000
B        9.05711692       3.43641946       9.49999822       0.00000000       0.00000000       0.00000000
B        9.06375452       5.25705372       9.49999822       0.00000000       0.00000000       0.00000000
B       10.57411476       6.07577342       9.49999822       0.00000000       0.00000000       0.00000000
B       10.58075236       7.89640768       9.49999822       0.00000000       0.00000000       0.00000000
B       12.09111381       8.71512738       9.49999822       0.00000000       0.00000000       0.00000000
B        9.04463645      -0.03248251       9.49999822       0.00000000       0.00000000       0.00000000
B       10.55499669       0.78623719       9.49999822       0.00000000       0.00000000       0.00000000
B       10.56163429       2.60687145       9.49999822       0.00000000       0.00000000       0.00000000
B       12.07199574       3.42559115       9.49999822       0.00000000       0.00000000       0.00000000
B       12.07863334       5.24622541       9.49999822       0.00000000       0.00000000       0.00000000
B       13.58899358       6.06494511       9.49999822       0.00000000       0.00000000       0.00000000
B       13.59563118       7.88557937       9.49999822       0.00000000       0.00000000       0.00000000
B       15.10599263       8.70430028       9.49999822       0.00000000       0.00000000       0.00000000
H        1.51373451       1.72907663      10.46688328       0.00000000       0.00000000       0.00000000
H        1.51373451       1.72907663       8.53311316       0.00000000       0.00000000       0.00000000
H        3.03073236       4.36843059      10.46688328       0.00000000       0.00000000       0.00000000
H        3.03073236       4.36843059       8.53311316       0.00000000       0.00000000       0.00000000
H        4.54773140       7.00778455      10.46688328       0.00000000       0.00000000       0.00000000
H        4.54773140       7.00778455       8.53311316       0.00000000       0.00000000       0.00000000
H        6.06472924       9.64713851      10.46688328       0.00000000       0.00000000       0.00000000
H        6.06472924       9.64713851       8.53311316       0.00000000       0.00000000       0.00000000
H        4.52861333       1.71824832      10.46688328       0.00000000       0.00000000       0.00000000
H        4.52861333       1.71824832       8.53311316       0.00000000       0.00000000       0.00000000
H        6.04561117       4.35760228      10.46688328       0.00000000       0.00000000       0.00000000
H        6.04561117       4.35760228       8.53311316       0.00000000       0.00000000       0.00000000
H        7.56261022       6.99695745      10.46688328       0.00000000       0.00000000       0.00000000
H        7.56261022       6.99695745       8.53311316       0.00000000       0.00000000       0.00000000
H        9.07960806       9.63631141      10.46688328       0.00000000       0.00000000       0.00000000
H        9.07960806       9.63631141       8.53311316       0.00000000       0.00000000       0.00000000
H        7.54349215       1.70742122      10.46688328       0.00000000       0.00000000       0.00000000
H        7.54349215       1.70742122       8.53311316       0.00000000       0.00000000       0.00000000
H        9.06048999       4.34677518      10.46688328       0.00000000       0.00000000       0.00000000
H        9.06048999       4.34677518       8.53311316       0.00000000       0.00000000       0.00000000
H       10.57748904       6.98612914      10.46688328       0.00000000       0.00000000       0.00000000
H       10.57748904       6.98612914       8.53311316       0.00000000       0.00000000       0.00000000
H       12.09448688       9.62548310      10.46688328       0.00000000       0.00000000       0.00000000
H       12.09448688       9.62548310       8.53311316       0.00000000       0.00000000       0.00000000
H       10.55837096       1.69659291      10.46688328       0.00000000       0.00000000       0.00000000
H       10.55837096       1.69659291       8.53311316       0.00000000       0.00000000       0.00000000
H       12.07536881       4.33594808      10.46688328       0.00000000       0.00000000       0.00000000
H       12.07536881       4.33594808       8.53311316       0.00000000       0.00000000       0.00000000
H       13.59236785       6.97530204      10.46688328       0.00000000       0.00000000       0.00000000
H       13.59236785       6.97530204       8.53311316       0.00000000       0.00000000       0.00000000
H       15.10936569       9.61465600      10.46688328       0.00000000       0.00000000       0.00000000
H       15.10936569       9.61465600       8.53311316       0.00000000       0.00000000       0.00000000
