4
Lattice="3.013346794 -0.010812582 0.0 1.516244501 2.640641856 0.0 0.0 0.0 20.000001021" Properties=species:S:1:pos:R:3:forces:R:3 pbc="T T T"
B        0.00000000       0.00000000      10.00000051      -0.00226616      -0.00062641       0.00000000
B        1.50951846       0.81281486      10.00000051       0.00231079       0.00232031       0.00000000
H        1.51290239       1.72683433      10.96739557      -0.00002231      -0.00084682      -0.00044164
H        1.51290239       1.72683433       9.03260545      -0.00002231      -0.00084682       0.00044164
