4
Lattice="3.014879854 -0.010827613 0.0 1.516999007 2.639355288 0.0 0.0 0.0 20.000001021" Properties=species:S:1:pos:R:3:forces:R:3 pbc="T T T"
B        0.00000000       0.00000000      10.00000051      -0.00098505      -0.00001225       0.00000000
B        1.51036103       0.81872001      10.00000051       0.00109934       0.00065661       0.00000000
H        1.51373452       1.72907605      10.96688583      -0.00005714      -0.00032218      -0.00035810
H        1.51373452       1.72907605       9.03311519      -0.00005714      -0.00032218       0.00035810
