67
Lattice="12.053387492 -0.043247814 0.0 6.064975534 10.562567369 0.0 0.0 0.0 19.000001291" Properties=species:S:1:pos:R:3:forces:R:3 pbc="T T T"
B       -0.00205545      -0.04537754       8.04685258      -0.00001225       0.00004191      -0.00045661
B        1.50846119       0.76829099       8.05717063      -0.00023892       0.00066804      -0.00034885
B        1.51450391       2.59490045       8.07567180      -0.00005932       0.00046531      -0.00000408
B        3.02424406       3.40918027       8.08071973      -0.00016653       0.00031865      -0.00102886
B        3.03087632       5.23666623       8.08011869      -0.00014966       0.00052273       0.00085253
B        4.54094289       6.05009571       8.07186297       0.00050151      -0.00024898      -0.00023701
B        4.54779619       7.87595996       8.04147945      -0.00022096       0.00009578       0.00061471
B        6.05660166       8.69309683       8.03365819       0.00034341      -0.00029552      -0.00036735
B        3.01199189      -0.05921433       8.05424818      -0.00032681       0.00033524       0.00012272
B        4.52141509       0.75794366       8.05614765       0.00043946      -0.00063511      -0.00073661
B        4.52826375       2.58445263       8.07387096       0.00012300      -0.00012055       0.00061661
B        6.03829994       3.39795484       8.07809321       0.00061389      -0.00009905       0.00059266
B        6.04411671       5.22508617       8.08148734       0.00056273      -0.00077471       0.00014531
B        7.55040275       6.04306058       8.08626701       0.00002803      -0.00015157      -0.00050314
B        7.55893288       7.86760924       8.04562598       0.00011510      -0.00029035      -0.00015619
B        9.07032274       8.67901051       8.04891876      -0.00020245       0.00006993      -0.00042341
B        6.02620198      -0.06616740       8.04540454       0.00048001      -0.00039974      -0.00050776
B        7.53563065       0.74690679       8.05178972      -0.00031538      -0.00009306       0.00033198
B        7.54207431       2.57498255       8.07232911       0.00018096      -0.00069199       0.00013905
B        9.05105828       3.38335051       8.08194748      -0.00008898      -0.00032082      -0.00051266
B        9.05750634       5.22121702       8.10309884      -0.00047702      -0.00068083      -0.00094995
B       10.57093651       6.03200131       8.09045166      -0.00017170      -0.00105172      -0.00082369
B       10.57607235       7.85852819       8.04537892      -0.00011538      -0.00033905       0.00059892
B       12.08437131       8.67190942       8.03349355      -0.00006041      -0.00062967      -0.00039184
B        9.03877680      -0.07850873       8.04525548      -0.00093852      -0.00008599       0.00107104
B       10.54781119       0.73560848       8.05354191      -0.00054913      -0.00071784       0.00005660
B       10.55417933       2.56390407       8.07578328       0.00036409      -0.00007919       0.00029633
B       12.06373301       3.37529730       8.08159022       0.00040980       0.00036409       0.00055321
B       12.07118016       5.20382886       8.08588988       0.00061443       0.00008789       0.00038831
B       13.58019488       6.01744191       8.07384668       0.00002340       0.00062641       0.00027184
B       13.58697391       7.84395741       8.04189799      -0.00036382       0.00018395      -0.00016789
B       15.09708443       8.65761377       8.03749741      -0.00082233       0.00005850      -0.00082396
H        1.51085545       1.67184497       9.03408913       0.00002204       0.00109744      -0.00031048
H        1.51328080       1.69189474       7.09875918       0.00025143       0.00109662       0.00023919
H        3.02804444       4.32305049       9.04791918       0.00050178      -0.00015483      -0.00035756
H        3.02598965       4.32228605       7.11283552       0.00100546       0.00050015       0.00018340
H        4.54850178       6.97854373       9.02446355      -0.00004435      -0.00114179       0.00070614
H        4.54370718       6.94662418       7.08880961       0.00034858      -0.00055049      -0.00013034
H        6.06189777       9.59848207       9.00864565      -0.00131377       0.00009578      -0.00090097
H        6.05942147       9.61177158       7.07189920      -0.00032028      -0.00081308      -0.00024953
H        4.52664733       1.66223115       9.03267017      -0.00063457      -0.00031021       0.00016517
H        4.52208132       1.68141792       7.09732902      -0.00012272       0.00068545      -0.00002884
H        6.03894428       4.31010099       9.04753979       0.00075267       0.00100519       0.00133744
H        6.04451550       4.31333348       7.11204264       0.00074124      -0.00017851      -0.00005306
H        7.51355593       6.97803072       9.03162833      -0.00080138       0.00013279      -0.00068192
H        7.56111877       6.93395186       7.09644145       0.00040708       0.00033633       0.00041579
H        9.07369450       9.58953701       9.02072688       0.00007728       0.00041035       0.00011157
H        9.07356234       9.59606210       7.08288750      -0.00031511       0.00136819      -0.00013987
H        7.54031828       1.64903087       9.02941943      -0.00112764       0.00094478       0.00036273
H        7.54050252       1.67113835       7.09466044       0.00096492      -0.00055049       0.00032763
H        9.05000409       4.29220772       9.05765562      -0.00050232       0.00002612      -0.00053171
H        9.05722007       4.31754878       7.12829774       0.00028082       0.00113716      -0.00112982
H       10.61235950       6.96979417       9.03318831       0.00062368      -0.00118397      -0.00001578
H       10.56753456       6.92151909       7.09925950      -0.00035021       0.00046940       0.00019238
H       12.08712029       9.57852696       9.00776228      -0.00081063       0.00030749      -0.00109689
H       12.08883863       9.59039295       7.07118503      -0.00043511      -0.00061117      -0.00012517
H       10.54943331       1.63681938       9.03200453      -0.00031021      -0.00009497       0.00011347
H       10.55011930       1.66055550       7.09738619      -0.00031484      -0.00047402       0.00009660
H       12.07135225       4.28755578       9.05121791       0.00062559       0.00064763       0.00058885
H       12.06137528       4.29180592       7.11646556       0.00158887      -0.00014395       0.00073879
H       13.58099222       6.94694806       9.02558084       0.00045470       0.00061607      -0.00044436
H       13.58253193       6.91351643       7.09019920      -0.00005415      -0.00065906       0.00064627
H       15.10058738       9.56538206       9.00914470      -0.00069688      -0.00082695       0.00029660
H       15.10089441       9.57341059       7.07365953      -0.00042722       0.00071756      -0.00030885
O        8.99555617       6.58673635      11.30486549       0.00241147      -0.00159758       0.00124410
H        9.07416808       6.16823138      10.41498296      -0.00114995       0.00155486       0.00180439
H        9.19767308       5.85534615      11.92881626      -0.00084627       0.00000871      -0.00127839
