66
Lattice="12.05952009 -0.043305996 0.0 6.067988953 10.557413434 0.0 0.0 0.0 18.999996437" Properties=species:S:1:pos:R:3:forces:R:3 pbc="T T T"
B        0.01873578      -0.02412521       8.21625219       0.00000000       0.00000000       0.00000000
B        1.51002378       0.79862360       8.23138095       0.00000000       0.00000000       0.00000000
B        1.50760462       2.62775746       8.29433202       0.00000000       0.00000000       0.00000000
B        3.02657903       3.41906570       8.28664283       0.00000000       0.00000000       0.00000000
B        3.03212042       5.24152940       8.24422562       0.00000000       0.00000000       0.00000000
B        4.50595818       6.07311307       8.22360492       0.00000000       0.00000000       0.00000000
B        4.53388217       7.90872776       8.20627408       0.00000000       0.00000000       0.00000000
B        6.03751798       8.68218781       8.19491998       0.00000000       0.00000000       0.00000000
B        3.01574831       0.03021290       8.20144422       0.00000000       0.00000000       0.00000000
B        4.52597469       0.78991898       8.23066702       0.00000000       0.00000000       0.00000000
B        4.54107210       2.61898652       8.29456598       0.00000000       0.00000000       0.00000000
B        6.05813988       3.41322163       8.31617556       0.00000000       0.00000000       0.00000000
B        5.99716659       5.21139128       8.24660136       0.00000000       0.00000000       0.00000000
B        7.09928430       6.38997886       8.21302022       0.00000000       0.00000000       0.00000000
B        7.62728099       7.92174971       8.18332709       0.00000000       0.00000000       0.00000000
B        9.07763873       8.76567275       8.16788840       0.00000000       0.00000000       0.00000000
B        6.01113400      -0.04352910       8.21482313       0.00000000       0.00000000       0.00000000
B        7.53506732       0.77137133       8.27276947       0.00000000       0.00000000       0.00000000
B        7.58302470       2.59180058       8.38544948       0.00000000       0.00000000       0.00000000
B        9.05796230       3.44431970       8.67053583       0.00000000       0.00000000       0.00000000
B       11.03328495       6.37155784       8.20880298       0.00000000       0.00000000       0.00000000
B       10.52179302       7.91081045       8.18129867       0.00000000       0.00000000       0.00000000
B       12.11434541       8.66285387       8.19292894       0.00000000       0.00000000       0.00000000
B        9.04427104      -0.05596616       8.27227623       0.00000000       0.00000000       0.00000000
B       10.56018473       0.75880403       8.27363776       0.00000000       0.00000000       0.00000000
B       10.52566656       2.57962159       8.38527944       0.00000000       0.00000000       0.00000000
B       12.05623385       3.38954020       8.31507331       0.00000000       0.00000000       0.00000000
B       12.12808008       5.18695854       8.24318970       0.00000000       0.00000000       0.00000000
B       13.62409543       6.04115395       8.22163198       0.00000000       0.00000000       0.00000000
B       13.61107228       7.87693144       8.20474975       0.00000000       0.00000000       0.00000000
B       15.10534864       8.68025466       8.22129913       0.00000000       0.00000000       0.00000000
H        1.49782068       1.68093715       9.22811230       0.00000000       0.00000000       0.00000000
H        1.48877116       1.74574781       7.29742943       0.00000000       0.00000000       0.00000000
H        3.02781635       4.36835703       9.23211608       0.00000000       0.00000000       0.00000000
H        3.02870634       4.32289598       7.29773574       0.00000000       0.00000000       0.00000000
H        4.52024639       7.00097088       9.18013079       0.00000000       0.00000000       0.00000000
H        4.50932522       6.98091819       7.24923689       0.00000000       0.00000000       0.00000000
H        6.10722122       9.56982567       9.17180847       0.00000000       0.00000000       0.00000000
H        6.08220360       9.59395812       7.23789725       0.00000000       0.00000000       0.00000000
H        4.54454767       1.67182612       9.22786387       0.00000000       0.00000000       0.00000000
H        4.55335720       1.73753884       7.29721839       0.00000000       0.00000000       0.00000000
H        6.08275834       4.39188891       9.25796582       0.00000000       0.00000000       0.00000000
H        6.11521432       4.31324589       7.30312035       0.00000000       0.00000000       0.00000000
H        7.74192551       6.97070372       9.16829189       0.00000000       0.00000000       0.00000000
H        7.68752951       6.94657729       7.21439552       0.00000000       0.00000000       0.00000000
H        9.08200672       9.61616827       9.15404590       0.00000000       0.00000000       0.00000000
H        9.08155930       9.65231449       7.21319438       0.00000000       0.00000000       0.00000000
H        7.46872509       1.59686249       9.28721515       0.00000000       0.00000000       0.00000000
H        7.57288741       1.71103307       7.35680604       0.00000000       0.00000000       0.00000000
H        9.05877753       3.61309490       9.91044404       0.00000000       0.00000000       0.00000000
H        9.06346389       4.58991706       8.15951060       0.00000000       0.00000000       0.00000000
H       10.40088595       6.96011660       9.16570873       0.00000000       0.00000000       0.00000000
H       10.45424965       6.93756878       7.21039535       0.00000000       0.00000000       0.00000000
H       12.05080583       9.55112365       9.17004174       0.00000000       0.00000000       0.00000000
H       12.07565341       9.57552021       7.23620770       0.00000000       0.00000000       0.00000000
H       10.63281483       1.58424213       9.28761312       0.00000000       0.00000000       0.00000000
H       10.53012619       1.69810639       7.35713406       0.00000000       0.00000000       0.00000000
H       12.03925153       4.36907337       9.25561902       0.00000000       0.00000000       0.00000000
H       12.00759631       4.28821862       7.30056975       0.00000000       0.00000000       0.00000000
H       13.61401000       6.96865720       9.17842436       0.00000000       0.00000000       0.00000000
H       13.62722249       6.94898439       7.24739539       0.00000000       0.00000000       0.00000000
H       15.10715035       9.56870775       9.21326694       0.00000000       0.00000000       0.00000000
H       15.10827430       9.61903725       7.28206551       0.00000000       0.00000000       0.00000000
O        9.06923440       6.02682595      10.83749747       0.00000000       0.00000000       0.00000000
H        9.06863383       5.79903110      11.78960109       0.00000000       0.00000000       0.00000000
H        9.06539463       5.13994905      10.37161129       0.00000000       0.00000000       0.00000000
