66
Lattice="12.053387492 -0.043247814 0.0 6.064975534 10.562567369 0.0 0.0 0.0 19.000001291" Properties=species:S:1:pos:R:3:forces:R:3 pbc="T T T"
B        0.10628819       0.03090304       8.24906317      -0.00007592       0.00137526       0.00002884
B        1.59953630       0.84193274       8.26715648      -0.00032245       0.00151758       0.00123921
B        1.59855241       2.67909062       8.33136241      -0.00067593       0.00053498      -0.00062831
B        3.11441593       3.46517892       8.32404940      -0.00167976       0.00105798      -0.00055566
B        3.12046033       5.29548528       8.27474346       0.00057579       0.00000898       0.00002830
B        4.59544149       6.12248486       8.24910066       0.00072981      -0.00136057       0.00028545
B        4.62302348       7.96340363       8.23612317      -0.00005606      -0.00191704       0.00013198
B        6.12561699       8.73469374       8.22184171      -0.00089961       0.00040327       0.00004735
B        3.10270565       0.07503576       8.23796394      -0.00128111       0.00005442      -0.00032245
B        4.61086828       0.83201791       8.26756198      -0.00058804      -0.00016463      -0.00005116
B        4.62498231       2.66900044       8.33112196      -0.00140438       0.00108356      -0.00037470
B        6.14053209       3.45490098       8.34203354       0.00015266      -0.00043212      -0.00027701
B        6.08511845       5.25942185       8.26361823       0.00049661      -0.00031075       0.00037933
B        7.21081033       6.41615779       8.22081707      -0.00000898      -0.00025116       0.00044654
B        7.70882203       7.96845691       8.20185326      -0.00038559      -0.00128519       0.00147540
B        9.16111705       8.80799393       8.19299716      -0.00108546       0.00030395      -0.00001660
B        6.09791072       0.01001491       8.24950148       0.00052191       0.00040790       0.00042069
B        7.62169122       0.81888078       8.30543985       0.00029688       0.00073008       0.00048872
B        7.66784615       2.65271358       8.40747424       0.00018721      -0.00014449       0.00000027
B        9.14145750       3.50556471       8.68120913       0.00085172      -0.00139594       0.00016164
B       11.09177390       6.40067092       8.22385476       0.00027565       0.00006177       0.00004871
B       10.60692118       7.95746294       8.20367936       0.00067130       0.00235025       0.00052627
B       12.19487521       8.71359312       8.22350826      -0.00018096      -0.00046014      -0.00054586
B        9.12855716      -0.00322341       8.30698609       0.00103458       0.00178371       0.00081090
B       10.64158928       0.80742127       8.30521642       0.00082505       0.00219977       0.00078586
B       10.60867954       2.64165054       8.40774276       0.00117417      -0.00033987      -0.00034939
B       12.14198128       3.43243148       8.34312804      -0.00000952      -0.00112710      -0.00127513
B       12.20949812       5.23661089       8.26619550       0.00160166      -0.00094859       0.00036790
B       13.70487828       6.08988540       8.25072830       0.00104845      -0.00030967      -0.00074668
B       13.69144407       7.93095741       8.23724330      -0.00042667      -0.00032980       0.00102777
B       15.18687652       8.72948126       8.25573979       0.00018776      -0.00027837       0.00040790
H        1.58939958       1.72846359       9.26481922      -0.00025851      -0.00149418       0.00057661
H        1.58587138       1.79368159       7.33343194      -0.00088301      -0.00044327       0.00005578
H        3.11715331       4.42369829       9.26649726       0.00097009      -0.00028164      -0.00029416
H        3.11622031       4.37100169       7.33126631       0.00096492      -0.00020871      -0.00027402
H        4.61859379       7.04890708       9.20892287       0.00050450       0.00050368       0.00025143
H        4.59845297       7.03351137       7.27616862      -0.00038422      -0.00063403      -0.00007755
H        6.19547626       9.62143663       9.20196949      -0.00022858      -0.00001116       0.00031565
H        6.16821035       9.65171250       7.26750114      -0.00028381       0.00015592      -0.00092981
H        4.62778515       1.71863983       9.26500779      -0.00031647      -0.00059919      -0.00021742
H        4.63125700       1.78336870       7.33353194       0.00090750      -0.00100138      -0.00043484
H        6.16143152       4.44399794       9.27932890      -0.00022803       0.00090696       0.00012109
H        6.17976601       4.35554143       7.32282373      -0.00024572       0.00066641       0.00040980
H        7.82960761       7.00746982       9.18232411       0.00045416      -0.00009851       0.00153635
H        7.76570057       6.99481720       7.21755629      -0.00000218      -0.00081852       0.00035402
H        9.16505823       9.65454893       9.18543922      -0.00184956       0.00003537      -0.00049117
H        9.16528514       9.70258443       7.24365031       0.00016028      -0.00018286      -0.00071838
H        7.56572109       1.65563736       9.31567525       0.00036980      -0.00041606      -0.00066777
H        7.66422359       1.75796848       7.38414934      -0.00065008      -0.00059539       0.00006585
H        9.14239801       3.69210914       9.92318258       0.00000054      -0.00054178      -0.00028844
H        9.14574072       4.65628018       8.15734581       0.00030041       0.00052246       0.00057552
H       10.47811504       6.99794837       9.18495490      -0.00040110       0.00077144       0.00138343
H       10.54286625       6.98403570       7.22009894       0.00104519      -0.00139649      -0.00184139
H       12.13142140       9.60175063       9.20313293       0.00082968      -0.00239215      -0.00116220
H       12.15920940       9.63050842       7.26852387      -0.00060436      -0.00024898       0.00015402
H       10.70314341       1.64354538       9.31555960       0.00031075      -0.00043348       0.00117308
H       10.60611974       1.74691834       7.38422228       0.00035048       0.00089988      -0.00088600
H       12.12899195       4.42085853       9.28122677      -0.00010748       0.00066858       0.00130506
H       12.10948882       4.33413018       7.32481259      -0.00036246       0.00002177      -0.00159840
H       13.68879415       7.01657406       9.21031537       0.00053579       0.00113118       0.00025960
H       13.70795303       7.00051339       7.27753172      -0.00033252       0.00076981      -0.00011021
H       15.19075804       9.62036493       9.24847783      -0.00096029      -0.00010912      -0.00004463
H       15.19038575       9.67063965       7.31623782      -0.00085036       0.00151214      -0.00037007
O        9.14687109       6.11902961      10.82130263       0.00244222      -0.00159078      -0.00197636
H        9.15644143       5.91773150      11.78244500      -0.00109798       0.00256059       0.00078668
H        9.14627128       5.21734164      10.37815093      -0.00165119      -0.00044736      -0.00090723
