66
Lattice="12.053387492 -0.043247814 0.0 6.064975534 10.562567369 0.0 0.0 0.0 19.000001291" Properties=species:S:1:pos:R:3:forces:R:3 pbc="T T T"
B        0.03223999       0.04157245       8.45548517       0.00058559       0.00008109       0.00044872
B        1.53784807       0.85723154       8.41762907       0.00028599      -0.00040980      -0.00048899
B        1.54004481       2.68366206       8.28294452      -0.00064437       0.00029987       0.00084519
B        3.06250493       3.48941850       8.25024972      -0.00069062       0.00065879       0.00044055
B        3.06905421       5.31944127       8.25235483       0.00050504      -0.00087294       0.00046069
B        4.59105814       6.12698889       8.27830986      -0.00000626      -0.00037252      -0.00019837
B        4.59191377       7.95048714       8.41767446       0.00022449       0.00005442      -0.00004816
B        6.09615215       8.76899150       8.45182626      -0.00019783       0.00051566      -0.00010395
B        3.04855228       0.04553353       8.45100836       0.00066967       0.00029279       0.00020871
B        4.56615148       0.84756742       8.41547166       0.00068464      -0.00021062      -0.00019973
B        4.57862913       2.67104291       8.27597962      -0.00060790      -0.00003456       0.00046885
B        6.09938219       3.49451809       8.22803448       0.00041144      -0.00017987       0.00022313
B        6.10593888       5.29269014       8.22886093      -0.00025932      -0.00069852       0.00053198
B        7.62269413       6.13453851       8.26966302      -0.00059865      -0.00001633       0.00031103
B        7.60858958       7.94030613       8.41806843      -0.00069226      -0.00032245       0.00051892
B        9.10618537       8.77902336       8.45930657       0.00010123      -0.00068545       0.00021987
B        6.06437395       0.01811277       8.45210987       0.00055157       0.00094424      -0.00072246
B        7.58269247       0.83614411       8.41891058      -0.00009334      -0.00034558      -0.00044572
B        7.60988466       2.64163036       8.26923066       0.00048654      -0.00077961       0.00036382
B        9.08622498       3.56144122       8.26631492       0.00007755       0.00009415       0.00001442
B        9.09225955       5.20392748       8.26664512      -0.00025769      -0.00035375       0.00022123
B       10.56889589       6.11801131       8.28520894      -0.00050450      -0.00038749      -0.00014068
B       10.59710265       7.93208537       8.42558616       0.00044545      -0.00054396       0.00025688
B       12.11728102       8.74554909       8.45751889      -0.00024164       0.00098206      -0.00011728
B        9.07434252      -0.01328419       8.46057489      -0.00020109       0.00128492       0.00020653
B       10.57139443       0.82284414       8.42487250       0.00062777      -0.00109308       0.00015211
B       10.55629879       2.63699790       8.28389072       0.00077035      -0.00078586       0.00051947
B       12.07658856       3.46632687       8.24342297      -0.00040926       0.00058559      -0.00026939
B       12.08314194       5.27784396       8.24494831      -0.00008980      -0.00028681       0.00027892
B       13.60582665       6.09287184       8.28601545       0.00057307      -0.00054777      -0.00032409
B       13.61701902       7.91921999       8.42125499      -0.00012408       0.00049361      -0.00056001
B       15.13352189       8.72013583       8.45418747       0.00020000       0.00022014      -0.00029606
H        1.53211155       1.84215268       9.31461373      -0.00088301      -0.00071838       0.00004245
H        1.53220752       1.70095958       7.38577540      -0.00108900      -0.00047919      -0.00054260
H        3.07238414       4.40326700       9.21882154       0.00027293       0.00088029      -0.00010368
H        3.06371917       4.40548988       7.28444902      -0.00015647       0.00021388       0.00016735
H        4.61026772       6.96374819       9.31289718       0.00032055      -0.00077008      -0.00036844
H        4.59534247       7.11045333       7.38275945       0.00034613      -0.00033252      -0.00082777
H        6.09844712       9.68409449       9.42027893      -0.00033769      -0.00005714       0.00018313
H        6.09502245       9.68797763       7.48633927       0.00011565      -0.00014830       0.00003946
H        4.59041881       1.83433640       9.31057580       0.00138805      -0.00057552       0.00045280
H        4.57721861       1.68758567       7.38045395      -0.00060627      -0.00058749      -0.00034803
H        6.13278181       4.39294264       9.20222648      -0.00059049       0.00094886       0.00004925
H        6.09819063       4.39400645       7.25194884       0.00053144       0.00059484       0.00073933
H        7.61932237       6.96195315       9.31385671      -0.00050640      -0.00118261       0.00058504
H        7.63642771       7.13115628       7.37518166       0.00033688       0.00026422      -0.00010721
H        9.10928472       9.69777894       9.42271618      -0.00092274      -0.00085090       0.00000626
H        9.11108172       9.68778959       7.48713839       0.00034613       0.00127839      -0.00009714
H        7.59947577       1.81494871       9.31409929       0.00076056       0.00085634      -0.00021551
H        7.61661110       1.64431865       7.37541894       0.00000463       0.00008055       0.00060627
H        9.09305671       4.38278826       7.20855472       0.00110043       0.00116492      -0.00061062
H       10.56535811       6.95442547       9.32385478       0.00059375      -0.00021034       0.00003837
H       10.56464354       7.11414491       7.38973456       0.00065770       0.00083811       0.00023728
H       12.12409913       9.66648854       9.42143014      -0.00038450       0.00054749       0.00048763
H       12.12326676       9.66082141       7.48753995      -0.00089798      -0.00013252      -0.00039647
H       10.54846990       1.80080154       9.32286267      -0.00077253       0.00120438      -0.00003810
H       10.54446002       1.64048414       7.38875270       0.00027674       0.00037089       0.00036082
H       12.05606000       4.37137026       9.21441854       0.00074913       0.00015456      -0.00083430
H       12.07737323       4.37294551       7.27362830      -0.00039837      -0.00030422       0.00041579
H       13.60362370       6.93418848       9.31799097      -0.00059511      -0.00019375      -0.00036871
H       13.60544110       7.07590877       7.38920020      -0.00095022      -0.00006231      -0.00112873
H       15.13628935       9.63149789       9.42500138      -0.00091811       0.00064573      -0.00068464
H       15.13706579       9.63943092       7.48937543       0.00033443      -0.00079103       0.00010123
O        7.91953322       4.38540221      11.11568959       0.00067130       0.00028599      -0.00246889
H        8.63199164       4.38493472      11.79144657      -0.00024844      -0.00014204       0.00074750
H        8.41150164       4.38460141      10.24158318      -0.00013061      -0.00037225       0.00110478
