66
Lattice="12.05952009 -0.043305996 0.0 6.067988953 10.557413434 0.0 0.0 0.0 18.999996437" Properties=species:S:1:pos:R:3:forces:R:3 pbc="T T T"
B        0.02609816       0.04107135       8.39246454       0.00000000       0.00000000       0.00000000
B        1.53191918       0.86320271       8.35890873       0.00000000       0.00000000       0.00000000
B        1.53379927       2.68393707       8.24562092       0.00000000       0.00000000       0.00000000
B        3.05720919       3.49378573       8.21842412       0.00000000       0.00000000       0.00000000
B        3.06368640       5.31753137       8.21994725       0.00000000       0.00000000       0.00000000
B        4.58678398       6.12870176       8.24316438       0.00000000       0.00000000       0.00000000
B        4.58791155       7.94696270       8.35979149       0.00000000       0.00000000       0.00000000
B        6.09244581       8.77188826       8.39063390       0.00000000       0.00000000       0.00000000
B        3.04368918       0.04625577       8.38771186       0.00000000       0.00000000       0.00000000
B        4.56222462       0.85322581       8.35690925       0.00000000       0.00000000       0.00000000
B        4.57429145       2.67147107       8.24085014       0.00000000       0.00000000       0.00000000
B        6.09671611       3.49740844       8.20304452       0.00000000       0.00000000       0.00000000
B        6.10328617       5.29182635       8.20455077       0.00000000       0.00000000       0.00000000
B        7.62042391       6.13807327       8.24392534       0.00000000       0.00000000       0.00000000
B        7.60597290       7.93855475       8.36474557       0.00000000       0.00000000       0.00000000
B        9.10438691       8.78270210       8.39817597       0.00000000       0.00000000       0.00000000
B        6.06082917       0.01771192       8.38939176       0.00000000       0.00000000       0.00000000
B        7.58042706       0.83999282       8.36424027       0.00000000       0.00000000       0.00000000
B        7.60769863       2.64020054       8.24213449       0.00000000       0.00000000       0.00000000
B        9.08409182       3.56277384       8.25066786       0.00000000       0.00000000       0.00000000
B        9.09032904       5.20517094       8.25214033       0.00000000       0.00000000       0.00000000
B       10.56776659       6.12221371       8.25331855       0.00000000       0.00000000       0.00000000
B       10.59606925       7.92974039       8.36861188       0.00000000       0.00000000       0.00000000
B       12.11705399       8.74853245       8.39377542       0.00000000       0.00000000       0.00000000
B        9.07273892      -0.01501540       8.39896587       0.00000000       0.00000000       0.00000000
B       10.57044865       0.82742432       8.36794860       0.00000000       0.00000000       0.00000000
B       10.55491227       2.63504748       8.25134199       0.00000000       0.00000000       0.00000000
B       12.07527957       3.47055655       8.21212299       0.00000000       0.00000000       0.00000000
B       12.08180260       5.27556278       8.21372571       0.00000000       0.00000000       0.00000000
B       13.60557552       6.09481552       8.24804248       0.00000000       0.00000000       0.00000000
B       13.61692842       7.91560414       8.36190192       0.00000000       0.00000000       0.00000000
B       15.13469928       8.72142128       8.39059892       0.00000000       0.00000000       0.00000000
H        1.52478834       1.83363812       9.26670782       0.00000000       0.00000000       0.00000000
H        1.52508018       1.71445799       7.33761199       0.00000000       0.00000000       0.00000000
H        3.06614776       4.40479991       9.18561791       0.00000000       0.00000000       0.00000000
H        3.05939680       4.40646051       7.25295365       0.00000000       0.00000000       0.00000000
H        4.60437893       6.97525742       9.26629658       0.00000000       0.00000000       0.00000000
H        4.59406556       7.09840033       7.33610334       0.00000000       0.00000000       0.00000000
H        6.09445855       9.68370199       9.35798566       0.00000000       0.00000000       0.00000000
H        6.09220703       9.68577745       7.42486194       0.00000000       0.00000000       0.00000000
H        4.58559611       1.82451866       9.26367483       0.00000000       0.00000000       0.00000000
H        4.57398031       1.70203782       7.33351294       0.00000000       0.00000000       0.00000000
H        6.13153456       4.39360016       9.17675170       0.00000000       0.00000000       0.00000000
H        6.10257345       4.39528368       7.22932529       0.00000000       0.00000000       0.00000000
H        7.61695798       6.97758854       9.27494211       0.00000000       0.00000000       0.00000000
H        7.63555387       7.11753770       7.33527725       0.00000000       0.00000000       0.00000000
H        9.10779495       9.69836404       9.36017569       0.00000000       0.00000000       0.00000000
H        9.10936511       9.68614044       7.42559516       0.00000000       0.00000000       0.00000000
H        7.59794000       1.80132806       9.27378800       0.00000000       0.00000000       0.00000000
H        7.61649610       1.66011264       7.33431611       0.00000000       0.00000000       0.00000000
H        9.08776638       4.38473757       7.19909913       0.00000000       0.00000000       0.00000000
H       10.56769182       6.96891045       9.27965982       0.00000000       0.00000000       0.00000000
H       10.56079736       7.10203871       7.34444496       0.00000000       0.00000000       0.00000000
H       12.12281486       9.66474190       9.35787954       0.00000000       0.00000000       0.00000000
H       12.12273527       9.65998318       7.42501027       0.00000000       0.00000000       0.00000000
H       10.54919241       1.78905139       9.27830553       0.00000000       0.00000000       0.00000000
H       10.54042750       1.65454473       7.34320764       0.00000000       0.00000000       0.00000000
H       12.05381349       4.37226313       9.18199521       0.00000000       0.00000000       0.00000000
H       12.07211754       4.37389359       7.24264391       0.00000000       0.00000000       0.00000000
H       13.60296582       6.94507346       9.26932836       0.00000000       0.00000000       0.00000000
H       13.60364357       7.06467447       7.34043394       0.00000000       0.00000000       0.00000000
H       15.13763579       9.62784799       9.36207748       0.00000000       0.00000000       0.00000000
H       15.13893220       9.63779715       7.42753555       0.00000000       0.00000000       0.00000000
O        8.06855957       4.37902132      11.18847382       0.00000000       0.00000000       0.00000000
H        8.83217417       4.38825897      11.80089731       0.00000000       0.00000000       0.00000000
H        8.48820444       4.38121014      10.28138383       0.00000000       0.00000000       0.00000000
