67
Lattice="12.05952009 -0.043305996 0.0 6.067988953 10.557413434 0.0 0.0 0.0 18.999996437" Properties=species:S:1:pos:R:3:forces:R:3 pbc="T T T"
B       -0.00777000      -0.03651162       8.00928366       0.00000000       0.00000000       0.00000000
B        1.50322096       0.78360940       8.01635178       0.00000000       0.00000000       0.00000000
B        1.50959084       2.60299550       8.03115493       0.00000000       0.00000000       0.00000000
B        3.02021519       3.42319009       8.03794569       0.00000000       0.00000000       0.00000000
B        3.02681058       5.24293917       8.04651765       0.00000000       0.00000000       0.00000000
B        4.53781118       6.06203996       8.04360405       0.00000000       0.00000000       0.00000000
B        4.54441140       7.88073142       8.01697406       0.00000000       0.00000000       0.00000000
B        6.05418916       8.70311723       8.01128917       0.00000000       0.00000000       0.00000000
B        3.00776607      -0.04833726       8.01709948       0.00000000       0.00000000       0.00000000
B        4.51813355       0.77349623       8.01516150       0.00000000       0.00000000       0.00000000
B        4.52508349       2.59250245       8.03034332       0.00000000       0.00000000       0.00000000
B        6.03604309       3.41169488       8.03816156       0.00000000       0.00000000       0.00000000
B        6.04199932       5.23122207       8.05364728       0.00000000       0.00000000       0.00000000
B        7.54995368       6.05329434       8.06573220       0.00000000       0.00000000       0.00000000
B        7.55792748       7.87357525       8.02930137       0.00000000       0.00000000       0.00000000
B        9.06933932       8.69124698       8.02671580       0.00000000       0.00000000       0.00000000
B        6.02306577      -0.05767982       8.00767249       0.00000000       0.00000000       0.00000000
B        7.53339103       0.76102902       8.01021466       0.00000000       0.00000000       0.00000000
B        7.54007808       2.58137506       8.03018655       0.00000000       0.00000000       0.00000000
B        9.04985464       3.39577984       8.04213157       0.00000000       0.00000000       0.00000000
B        9.05643676       5.22526584       8.07692109       0.00000000       0.00000000       0.00000000
B       10.56962498       6.04237076       8.06689474       0.00000000       0.00000000       0.00000000
B       10.57481422       7.86372136       8.02650475       0.00000000       0.00000000       0.00000000
B       12.08414698       8.68197918       8.00895081       0.00000000       0.00000000       0.00000000
B        9.03742602      -0.07018683       8.00636644       0.00000000       0.00000000       0.00000000
B       10.54737382       0.74979069       8.01119992       0.00000000       0.00000000       0.00000000
B       10.55390771       2.57078432       8.03215467       0.00000000       0.00000000       0.00000000
B       12.06421006       3.38887090       8.03949655       0.00000000       0.00000000       0.00000000
B       12.07163757       5.21027818       8.05508237       0.00000000       0.00000000       0.00000000
B       13.58147322       6.02972990       8.04412382       0.00000000       0.00000000       0.00000000
B       13.58785636       7.84889168       8.01602135       0.00000000       0.00000000       0.00000000
B       15.09887023       8.66804191       8.00867826       0.00000000       0.00000000       0.00000000
H        1.50534948       1.68571878       8.99093207       0.00000000       0.00000000       0.00000000
H        1.50790973       1.70199923       7.05663494       0.00000000       0.00000000       0.00000000
H        3.02425033       4.32843133       9.00937119       0.00000000       0.00000000       0.00000000
H        3.02292498       4.33751100       7.07499688       0.00000000       0.00000000       0.00000000
H        4.54256628       6.98491353       8.99754193       0.00000000       0.00000000       0.00000000
H        4.54316805       6.95685086       7.06281549       0.00000000       0.00000000       0.00000000
H        6.05563752       9.61325347       8.97780400       0.00000000       0.00000000       0.00000000
H        6.05888517       9.61066307       7.04257467       0.00000000       0.00000000       0.00000000
H        4.52326249       1.67549104       8.99011081       0.00000000       0.00000000       0.00000000
H        4.51923941       1.69207056       7.05549652       0.00000000       0.00000000       0.00000000
H        6.03596470       4.31349553       9.01312172       0.00000000       0.00000000       0.00000000
H        6.04494669       4.32947569       7.07861235       0.00000000       0.00000000       0.00000000
H        7.52041612       6.98348568       9.01418055       0.00000000       0.00000000       0.00000000
H        7.56436851       6.94459952       7.08042370       0.00000000       0.00000000       0.00000000
H        9.07369886       9.60666652       8.98998177       0.00000000       0.00000000       0.00000000
H        9.07194660       9.59698628       7.05393601       0.00000000       0.00000000       0.00000000
H        7.53676651       1.65952414       8.98711038       0.00000000       0.00000000       0.00000000
H        7.53826673       1.68092147       7.05321846       0.00000000       0.00000000       0.00000000
H        9.04707731       4.29274338       9.02415986       0.00000000       0.00000000       0.00000000
H        9.05484369       4.33143297       7.09573938       0.00000000       0.00000000       0.00000000
H       10.60669496       6.97511029       9.01268878       0.00000000       0.00000000       0.00000000
H       10.56200573       6.93214679       7.07980263       0.00000000       0.00000000       0.00000000
H       12.08807117       9.59225048       8.97591546       0.00000000       0.00000000       0.00000000
H       12.08573403       9.59030165       7.04054865       0.00000000       0.00000000       0.00000000
H       10.54985328       1.64791316       8.98844659       0.00000000       0.00000000       0.00000000
H       10.54930939       1.67035847       7.05479224       0.00000000       0.00000000       0.00000000
H       12.07475377       4.29150365       9.01394298       0.00000000       0.00000000       0.00000000
H       12.06196698       4.30769125       7.08063595       0.00000000       0.00000000       0.00000000
H       13.58417818       6.95370934       8.99721994       0.00000000       0.00000000       0.00000000
H       13.58199660       6.92410063       7.06278413       0.00000000       0.00000000       0.00000000
H       15.10157158       9.57753175       8.97476257       0.00000000       0.00000000       0.00000000
H       15.10218662       9.57488105       7.04013742       0.00000000       0.00000000       0.00000000
O        9.09081142       6.36767224      11.47626333       0.00000000       0.00000000       0.00000000
H        9.11930221       6.08766177      10.53424997       0.00000000       0.00000000       0.00000000
H        9.43792870       5.58975858      11.95985901       0.00000000       0.00000000       0.00000000
