 ANIMSTEPS   7
 CRYSTAL 
 PRIMVEC 
  5.7275649276  0.0000000000  0.0000000000
  0.0000000000  5.7275649276  0.0000000000
  0.0000000000  0.0000000000 13.7500000000
 PRIMCOORD   1
   13  1
Al    0.0000000000    0.0000000000    4.0000000000    0.0000000000    0.0000000000    0.0000000000
Al    2.8637824638    0.0000000000    4.0000000000    0.0000000000    0.0000000000    0.0000000000
Al    0.0000000000    2.8637824638    4.0000000000    0.0000000000    0.0000000000    0.0000000000
Al    2.8637824638    2.8637824638    4.0000000000    0.0000000000    0.0000000000    0.0000000000
Al    1.4318912319    1.4318912319    6.0250000000    0.0000000000    0.0000000000    0.0000000000
Al    4.2956736957    1.4318912319    6.0250000000    0.0000000000    0.0000000000    0.0000000000
Al    1.4318912319    4.2956736957    6.0250000000    0.0000000000    0.0000000000    0.0000000000
Al    4.2956736957    4.2956736957    6.0250000000    0.0000000000    0.0000000000    0.0000000000
Al   -0.0727584676   -0.0727584676    7.9964398610    0.0040162779    0.0040162779    0.0075931179
Al    2.9365409314   -0.0727584676    7.9964398610   -0.0040162779    0.0040162779    0.0075931179
Al   -0.0727584676    2.9365409314    7.9964398610    0.0040162779   -0.0040162779    0.0075931179
Al    2.9365409314    2.9365409314    7.9964398610   -0.0040162779   -0.0040162779    0.0075931179
Au    1.4318912319    1.4318912319    9.4013916343    0.0000000000    0.0000000000   -0.0024040956
 PRIMCOORD   2
   13  1
Al    0.0000000000    0.0000000000    4.0000000000    0.0000000000    0.0000000000    0.0000000000
Al    2.8637824638    0.0000000000    4.0000000000    0.0000000000    0.0000000000    0.0000000000
Al    0.0000000000    2.8637824638    4.0000000000    0.0000000000    0.0000000000    0.0000000000
Al    2.8637824638    2.8637824638    4.0000000000    0.0000000000    0.0000000000    0.0000000000
Al    1.4318912319    1.4318912319    6.0250000000    0.0000000000    0.0000000000    0.0000000000
Al    4.2956736957    1.4318912319    6.0250000000    0.0000000000    0.0000000000    0.0000000000
Al    1.4318912319    4.2956736957    6.0250000000    0.0000000000    0.0000000000    0.0000000000
Al    4.2956736957    4.2956736957    6.0250000000    0.0000000000    0.0000000000    0.0000000000
Al    0.0887709682   -0.0145675656    8.1510408711    0.0021922668   -0.0003844786    0.0013069921
Al    3.0153588929   -0.0770118493    8.0104262934    0.0045901832   -0.0001713004    0.0016552926
Al    0.0887571622    2.8783315983    8.1510290562    0.0021933224    0.0003837529    0.0013078706
Al    3.0153446215    2.9407264566    8.0104507862    0.0045909431    0.0001740475    0.0016523390
Au    1.9341806942    1.4318361994    9.6568067668   -0.0265714680    0.0000012591   -0.0091667118
 PRIMCOORD   3
   13  1
Al    0.0000000000    0.0000000000    4.0000000000    0.0000000000    0.0000000000    0.0000000000
Al    2.8637824638    0.0000000000    4.0000000000    0.0000000000    0.0000000000    0.0000000000
Al    0.0000000000    2.8637824638    4.0000000000    0.0000000000    0.0000000000    0.0000000000
Al    2.8637824638    2.8637824638    4.0000000000    0.0000000000    0.0000000000    0.0000000000
Al    1.4318912319    1.4318912319    6.0250000000    0.0000000000    0.0000000000    0.0000000000
Al    4.2956736957    1.4318912319    6.0250000000    0.0000000000    0.0000000000    0.0000000000
Al    1.4318912319    4.2956736957    6.0250000000    0.0000000000    0.0000000000    0.0000000000
Al    4.2956736957    4.2956736957    6.0250000000    0.0000000000    0.0000000000    0.0000000000
Al    0.0493741407   -0.0101824407    8.1234334355    0.0018896276    0.0000899732    0.0007098797
Al    2.9380417468   -0.0767817428    7.9824552875    0.0030147165   -0.0003896198    0.0000406435
Al    0.0493501037    2.8739785219    8.1234096408    0.0018890950   -0.0000895068    0.0007098458
Al    2.9380227479    2.9404882102    7.9825058141    0.0030139399    0.0003900826    0.0000405231
Au    2.4226139270    1.4317918510    9.8416355599   -0.0170783815    0.0000010093   -0.0020951464
 PRIMCOORD   4
   13  1
Al    0.0000000000    0.0000000000    4.0000000000    0.0000000000    0.0000000000    0.0000000000
Al    2.8637824638    0.0000000000    4.0000000000    0.0000000000    0.0000000000    0.0000000000
Al    0.0000000000    2.8637824638    4.0000000000    0.0000000000    0.0000000000    0.0000000000
Al    2.8637824638    2.8637824638    4.0000000000    0.0000000000    0.0000000000    0.0000000000
Al    1.4318912319    1.4318912319    6.0250000000    0.0000000000    0.0000000000    0.0000000000
Al    4.2956736957    1.4318912319    6.0250000000    0.0000000000    0.0000000000    0.0000000000
Al    1.4318912319    4.2956736957    6.0250000000    0.0000000000    0.0000000000    0.0000000000
Al    4.2956736957    4.2956736957    6.0250000000    0.0000000000    0.0000000000    0.0000000000
Al   -0.0001135638   -0.0149657704    8.0994037302   -0.0000106148   -0.0000719168   -0.0000816188
Al    2.8635691127   -0.0724681504    7.9835231770    0.0000194550    0.0000391368    0.0004517501
Al   -0.0001137216    2.8787514954    8.0993917150   -0.0000106371    0.0000723431   -0.0000812511
Al    2.8635687458    2.9361821432    7.9835628993    0.0000194807   -0.0000379346    0.0004514642
Au    2.8632806760    1.4318131095    9.9192754519    0.0000376624   -0.0000004903   -0.0008226060
 PRIMCOORD   5
   13  1
Al    0.0000000000    0.0000000000    4.0000000000    0.0000000000    0.0000000000    0.0000000000
Al    2.8637824638    0.0000000000    4.0000000000    0.0000000000    0.0000000000    0.0000000000
Al    0.0000000000    2.8637824638    4.0000000000    0.0000000000    0.0000000000    0.0000000000
Al    2.8637824638    2.8637824638    4.0000000000    0.0000000000    0.0000000000    0.0000000000
Al    1.4318912319    1.4318912319    6.0250000000    0.0000000000    0.0000000000    0.0000000000
Al    4.2956736957    1.4318912319    6.0250000000    0.0000000000    0.0000000000    0.0000000000
Al    1.4318912319    4.2956736957    6.0250000000    0.0000000000    0.0000000000    0.0000000000
Al    4.2956736957    4.2956736957    6.0250000000    0.0000000000    0.0000000000    0.0000000000
Al   -0.0486833197   -0.0102662102    8.1220714622   -0.0018245409    0.0000749971    0.0008389189
Al    2.7902438344   -0.0756918683    7.9846243615   -0.0028035388   -0.0000424299    0.0006466770
Al   -0.0486606763    2.8740585450    8.1220483383   -0.0018242624   -0.0000737015    0.0008391096
Al    2.7902611133    2.9393977829    7.9846717386   -0.0028035176    0.0000457347    0.0006441166
Au    3.3062923387    1.4318086435    9.8505313453    0.0161634618   -0.0000057204   -0.0041407262
 PRIMCOORD   6
   13  1
Al    0.0000000000    0.0000000000    4.0000000000    0.0000000000    0.0000000000    0.0000000000
Al    2.8637824638    0.0000000000    4.0000000000    0.0000000000    0.0000000000    0.0000000000
Al    0.0000000000    2.8637824638    4.0000000000    0.0000000000    0.0000000000    0.0000000000
Al    2.8637824638    2.8637824638    4.0000000000    0.0000000000    0.0000000000    0.0000000000
Al    1.4318912319    1.4318912319    6.0250000000    0.0000000000    0.0000000000    0.0000000000
Al    4.2956736957    1.4318912319    6.0250000000    0.0000000000    0.0000000000    0.0000000000
Al    1.4318912319    4.2956736957    6.0250000000    0.0000000000    0.0000000000    0.0000000000
Al    4.2956736957    4.2956736957    6.0250000000    0.0000000000    0.0000000000    0.0000000000
Al   -0.0884785557   -0.0144424829    8.1507673881   -0.0022373432   -0.0003402800    0.0015985077
Al    2.7124312617   -0.0771228207    8.0110461204   -0.0044714030   -0.0000640754    0.0019166763
Al   -0.0884650446    2.8782101990    8.1507560589   -0.0022384886    0.0003387830    0.0015994202
Al    2.7124472683    2.9408380124    8.0110748440   -0.0044701732    0.0000637137    0.0019164429
Au    3.7915771776    1.4318098866    9.6597016836    0.0260927880    0.0000063329   -0.0120067472
 PRIMCOORD   7
   13  1
Al    0.0000000000    0.0000000000    4.0000000000    0.0000000000    0.0000000000    0.0000000000
Al    2.8637824638    0.0000000000    4.0000000000    0.0000000000    0.0000000000    0.0000000000
Al    0.0000000000    2.8637824638    4.0000000000    0.0000000000    0.0000000000    0.0000000000
Al    2.8637824638    2.8637824638    4.0000000000    0.0000000000    0.0000000000    0.0000000000
Al    1.4318912319    1.4318912319    6.0250000000    0.0000000000    0.0000000000    0.0000000000
Al    4.2956736957    1.4318912319    6.0250000000    0.0000000000    0.0000000000    0.0000000000
Al    1.4318912319    4.2956736957    6.0250000000    0.0000000000    0.0000000000    0.0000000000
Al    4.2956736957    4.2956736957    6.0250000000    0.0000000000    0.0000000000    0.0000000000
Al    0.0723226214   -0.0731270933    7.9984399474   -0.0039163274    0.0041243379    0.0074153130
Al    2.7914598424   -0.0731270933    7.9984399474    0.0039163274    0.0041243379    0.0074153130
Al    0.0723226214    2.9369095572    7.9984399474   -0.0039163274   -0.0041243379    0.0074153130
Al    2.7914598424    2.9369095572    7.9984399474    0.0039163274   -0.0041243379    0.0074153130
Au    4.2956736957    1.4318912319    9.4043801855    0.0000000000    0.0000000000   -0.0025113313
