 ANIMSTEPS   7
 CRYSTAL 
 PRIMVEC 
  5.7275649276  0.0000000000  0.0000000000
  0.0000000000  5.7275649276  0.0000000000
  0.0000000000  0.0000000000 13.7500000000
 PRIMCOORD   1
   13  1
Al    0.0000000000    0.0000000000    4.0000000000    0.0000000000    0.0000000000    0.0000000000
Al    2.8637824638    0.0000000000    4.0000000000    0.0000000000    0.0000000000    0.0000000000
Al    0.0000000000    2.8637824638    4.0000000000    0.0000000000    0.0000000000    0.0000000000
Al    2.8637824638    2.8637824638    4.0000000000    0.0000000000    0.0000000000    0.0000000000
Al    1.4318912319    1.4318912319    6.0250000000    0.0000000000    0.0000000000    0.0000000000
Al    4.2956736957    1.4318912319    6.0250000000    0.0000000000    0.0000000000    0.0000000000
Al    1.4318912319    4.2956736957    6.0250000000    0.0000000000    0.0000000000    0.0000000000
Al    4.2956736957    4.2956736957    6.0250000000    0.0000000000    0.0000000000    0.0000000000
Al   -0.0727584676   -0.0727584676    7.9964398610    0.0040162779    0.0040162779    0.0075931179
Al    2.9365409314   -0.0727584676    7.9964398610   -0.0040162779    0.0040162779    0.0075931179
Al   -0.0727584676    2.9365409314    7.9964398610    0.0040162779   -0.0040162779    0.0075931179
Al    2.9365409314    2.9365409314    7.9964398610   -0.0040162779   -0.0040162779    0.0075931179
Au    1.4318912319    1.4318912319    9.4013916343    0.0000000000    0.0000000000   -0.0024040956
 PRIMCOORD   2
   13  1
Al    0.0000000000    0.0000000000    4.0000000000    0.0000000000    0.0000000000    0.0000000000
Al    2.8637824638    0.0000000000    4.0000000000    0.0000000000    0.0000000000    0.0000000000
Al    0.0000000000    2.8637824638    4.0000000000    0.0000000000    0.0000000000    0.0000000000
Al    2.8637824638    2.8637824638    4.0000000000    0.0000000000    0.0000000000    0.0000000000
Al    1.4318912319    1.4318912319    6.0250000000    0.0000000000    0.0000000000    0.0000000000
Al    4.2956736957    1.4318912319    6.0250000000    0.0000000000    0.0000000000    0.0000000000
Al    1.4318912319    4.2956736957    6.0250000000    0.0000000000    0.0000000000    0.0000000000
Al    4.2956736957    4.2956736957    6.0250000000    0.0000000000    0.0000000000    0.0000000000
Al    0.0874501247   -0.0163301819    8.1533211375    0.0023728114   -0.0000301355    0.0012029171
Al    3.0150427714   -0.0775989879    8.0095155227    0.0045197416    0.0000032320    0.0017531404
Al    0.0874501247    2.8801126457    8.1533211375    0.0023728114    0.0000301355    0.0012029171
Al    3.0150427714    2.9413814518    8.0095155227    0.0045197416   -0.0000032320    0.0017531404
Au    1.9341092825    1.4318912319    9.6548101744   -0.0268498261    0.0000000000   -0.0096291754
 PRIMCOORD   3
   13  1
Al    0.0000000000    0.0000000000    4.0000000000    0.0000000000    0.0000000000    0.0000000000
Al    2.8637824638    0.0000000000    4.0000000000    0.0000000000    0.0000000000    0.0000000000
Al    0.0000000000    2.8637824638    4.0000000000    0.0000000000    0.0000000000    0.0000000000
Al    2.8637824638    2.8637824638    4.0000000000    0.0000000000    0.0000000000    0.0000000000
Al    1.4318912319    1.4318912319    6.0250000000    0.0000000000    0.0000000000    0.0000000000
Al    4.2956736957    1.4318912319    6.0250000000    0.0000000000    0.0000000000    0.0000000000
Al    1.4318912319    4.2956736957    6.0250000000    0.0000000000    0.0000000000    0.0000000000
Al    4.2956736957    4.2956736957    6.0250000000    0.0000000000    0.0000000000    0.0000000000
Al    0.0485037401   -0.0112653090    8.1249038525    0.0019248173    0.0002981835    0.0005306516
Al    2.9376013741   -0.0767881254    7.9841355221    0.0029370874   -0.0002473974    0.0000007567
Al    0.0485037401    2.8750477728    8.1249038525    0.0019248173   -0.0002981835    0.0005306516
Al    2.9376013741    2.9405705893    7.9841355221    0.0029370874    0.0002473974    0.0000007567
Au    2.4216526324    1.4318912319    9.8443711991   -0.0166681451    0.0000000000   -0.0014846436
 PRIMCOORD   4
   13  1
Al    0.0000000000    0.0000000000    4.0000000000    0.0000000000    0.0000000000    0.0000000000
Al    2.8637824638    0.0000000000    4.0000000000    0.0000000000    0.0000000000    0.0000000000
Al    0.0000000000    2.8637824638    4.0000000000    0.0000000000    0.0000000000    0.0000000000
Al    2.8637824638    2.8637824638    4.0000000000    0.0000000000    0.0000000000    0.0000000000
Al    1.4318912319    1.4318912319    6.0250000000    0.0000000000    0.0000000000    0.0000000000
Al    4.2956736957    1.4318912319    6.0250000000    0.0000000000    0.0000000000    0.0000000000
Al    1.4318912319    4.2956736957    6.0250000000    0.0000000000    0.0000000000    0.0000000000
Al    4.2956736957    4.2956736957    6.0250000000    0.0000000000    0.0000000000    0.0000000000
Al    0.0003378394   -0.0158430630    8.1018562840    0.0001017844    0.0001112608   -0.0003505298
Al    2.8642892256   -0.0735504652    7.9824995408    0.0001209610    0.0001398509    0.0002272247
Al    0.0003378394    2.8796255269    8.1018562840    0.0001017844   -0.0001112608   -0.0003505298
Al    2.8642892256    2.9373329291    7.9824995408    0.0001209610   -0.0001398509    0.0002272247
Au    2.8623348009    1.4318912319    9.9155847939   -0.0013657456    0.0000000000    0.0007278195
 PRIMCOORD   5
   13  1
Al    0.0000000000    0.0000000000    4.0000000000    0.0000000000    0.0000000000    0.0000000000
Al    2.8637824638    0.0000000000    4.0000000000    0.0000000000    0.0000000000    0.0000000000
Al    0.0000000000    2.8637824638    4.0000000000    0.0000000000    0.0000000000    0.0000000000
Al    2.8637824638    2.8637824638    4.0000000000    0.0000000000    0.0000000000    0.0000000000
Al    1.4318912319    1.4318912319    6.0250000000    0.0000000000    0.0000000000    0.0000000000
Al    4.2956736957    1.4318912319    6.0250000000    0.0000000000    0.0000000000    0.0000000000
Al    1.4318912319    4.2956736957    6.0250000000    0.0000000000    0.0000000000    0.0000000000
Al    4.2956736957    4.2956736957    6.0250000000    0.0000000000    0.0000000000    0.0000000000
Al   -0.0485416590   -0.0112650737    8.1252833549   -0.0020947938    0.0003059807    0.0004811875
Al    2.7900890414   -0.0775303255    7.9824375799   -0.0031034162   -0.0000409531    0.0001299541
Al   -0.0485416590    2.8750475376    8.1252833549   -0.0020947938   -0.0003059807    0.0004811875
Al    2.7900890414    2.9413127893    7.9824375799   -0.0031034162    0.0000409531    0.0001299541
Au    3.3036265379    1.4318912319    9.8424216441    0.0187797164    0.0000000000   -0.0014013944
 PRIMCOORD   6
   13  1
Al    0.0000000000    0.0000000000    4.0000000000    0.0000000000    0.0000000000    0.0000000000
Al    2.8637824638    0.0000000000    4.0000000000    0.0000000000    0.0000000000    0.0000000000
Al    0.0000000000    2.8637824638    4.0000000000    0.0000000000    0.0000000000    0.0000000000
Al    2.8637824638    2.8637824638    4.0000000000    0.0000000000    0.0000000000    0.0000000000
Al    1.4318912319    1.4318912319    6.0250000000    0.0000000000    0.0000000000    0.0000000000
Al    4.2956736957    1.4318912319    6.0250000000    0.0000000000    0.0000000000    0.0000000000
Al    1.4318912319    4.2956736957    6.0250000000    0.0000000000    0.0000000000    0.0000000000
Al    4.2956736957    4.2956736957    6.0250000000    0.0000000000    0.0000000000    0.0000000000
Al   -0.0875802020   -0.0161007930    8.1534150112   -0.0022885605   -0.0000816122    0.0012091244
Al    2.7130240553   -0.0774189209    8.0088227915   -0.0046840980   -0.0002687560    0.0015980271
Al   -0.0875802020    2.8798832569    8.1534150112   -0.0022885605    0.0000816122    0.0012091244
Al    2.7130240553    2.9412013848    8.0088227915   -0.0046840980    0.0002687560    0.0015980271
Au    3.7902132164    1.4318912319    9.6539853775    0.0267262373    0.0000000000   -0.0094410433
 PRIMCOORD   7
   13  1
Al    0.0000000000    0.0000000000    4.0000000000    0.0000000000    0.0000000000    0.0000000000
Al    2.8637824638    0.0000000000    4.0000000000    0.0000000000    0.0000000000    0.0000000000
Al    0.0000000000    2.8637824638    4.0000000000    0.0000000000    0.0000000000    0.0000000000
Al    2.8637824638    2.8637824638    4.0000000000    0.0000000000    0.0000000000    0.0000000000
Al    1.4318912319    1.4318912319    6.0250000000    0.0000000000    0.0000000000    0.0000000000
Al    4.2956736957    1.4318912319    6.0250000000    0.0000000000    0.0000000000    0.0000000000
Al    1.4318912319    4.2956736957    6.0250000000    0.0000000000    0.0000000000    0.0000000000
Al    4.2956736957    4.2956736957    6.0250000000    0.0000000000    0.0000000000    0.0000000000
Al    0.0723226214   -0.0731270933    7.9984399474   -0.0039163274    0.0041243379    0.0074153130
Al    2.7914598424   -0.0731270933    7.9984399474    0.0039163274    0.0041243379    0.0074153130
Al    0.0723226214    2.9369095572    7.9984399474   -0.0039163274   -0.0041243379    0.0074153130
Al    2.7914598424    2.9369095572    7.9984399474    0.0039163274   -0.0041243379    0.0074153130
Au    4.2956736957    1.4318912319    9.4043801855    0.0000000000    0.0000000000   -0.0025113313
